24
 i =        1, E =     -1520.061955260000000
 Co         1.1685651217        2.8260202452        3.0264753259
 Co         2.4023178502        0.4770639260        3.0319095009
 Co         5.0472841574        0.3857714917        3.0302810312
 Co         3.6889520356        2.6383078344        3.0148793518
 Co         6.1960477900        2.6421759488        3.0298721583
 Co         0.0402965101        4.7928326076        3.0235162778
 Co         2.6843000000        4.7397766796        3.0342483468
 Co         1.2337596625        6.7816587467        3.0352407013
 Co         3.6151312929        6.9193137403        3.0306218677
 Co         4.9990479517        4.8282021718        3.0294277509
 C         2.3276562303        4.3368043044        7.6031526969
 C         3.2000904773        3.3127043738        7.5656454477
 C         3.7411881984        2.7632431404        8.7247180833
 C         3.3941540526        3.3658733856        9.9516636353
 C         2.5312885486        4.4921360994        9.9774553499
 C         1.9840008912        4.9898592421        8.7791106164
 H         4.3988955477        1.9179657354        8.6870960308
 H         3.7853152496        2.9763143511        10.8697026989
 H         2.2902299418        4.9642420792        10.9071449788
 H         1.3303412153        5.8355674518        8.771815457
 N         1.8666705097        4.5872381258        6.250624162
 N         3.438979892        2.9896680544        6.1641090526
 N         2.7974840511        3.8388429462        5.4717603035
 H         1.8614708302        5.5474536372        5.2688348461
24
 i =        1, E =     -1520.049151673495089
 Co         1.1685651217        2.8260202452        3.0264753259
 Co         2.4023178502        0.4770639260        3.0319095009
 Co         5.0472841574        0.3857714917        3.0302810312
 Co         3.6889520356        2.6383078344        3.0148793518
 Co         6.1960477900        2.6421759488        3.0298721583
 Co         0.0402965101        4.7928326076        3.0235162778
 Co         2.6843000000        4.7397766796        3.0342483468
 Co         1.2337596625        6.7816587467        3.0352407013
 Co         3.6151312929        6.9193137403        3.0306218677
 Co         4.9990479517        4.8282021718        3.0294277509
 C         2.3276562303        4.3368043044        7.3595400531
 C         3.2000904773        3.3127043738        7.322032804
 C         3.7411881984        2.7632431404        8.4811054396
 C         3.3941540526        3.3658733856        9.7080509915
 C         2.5312885486        4.4921360994        9.7338427061
 C         1.9840008912        4.9898592421        8.5354979727
 H         4.3988955477        1.9179657354        8.443483387
 H         3.7853152496        2.9763143511        10.6260900551
 H         2.2902299418        4.9642420792        10.6635323351
 H         1.3303412153        5.8355674518        8.5282028133
 N         1.8666705097        4.5872381258        6.0070115183
 N         3.438979892        2.9896680544        5.9204964089
 N         2.7974840511        3.8388429462        5.2281476598
 H         1.8614708302        5.5474536372        5.0252222024
24
 i =        1, E =     -1520.056444212923907
 Co         1.1685651217        2.8260202452        3.0264753259
 Co         2.4023178502        0.4770639260        3.0319095009
 Co         5.0472841574        0.3857714917        3.0302810312
 Co         3.6889520356        2.6383078344        3.0148793518
 Co         6.1960477900        2.6421759488        3.0298721583
 Co         0.0402965101        4.7928326076        3.0235162778
 Co         2.6843000000        4.7397766796        3.0342483468
 Co         1.2337596625        6.7816587467        3.0352407013
 Co         3.6151312929        6.9193137403        3.0306218677
 Co         4.9990479517        4.8282021718        3.0294277509
 C         2.3276562303        4.3368043044        7.1159274094
 C         3.2000904773        3.3127043738        7.0784201603
 C         3.7411881984        2.7632431404        8.2374927959
 C         3.3941540526        3.3658733856        9.4644383478
 C         2.5312885486        4.4921360994        9.4902300624
 C         1.9840008912        4.9898592421        8.291885329
 H         4.3988955477        1.9179657354        8.1998707433
 H         3.7853152496        2.9763143511        10.3824774114
 H         2.2902299418        4.9642420792        10.4199196913
 H         1.3303412153        5.8355674518        8.2845901696
 N         1.8666705097        4.5872381258        5.7633988745
 N         3.438979892        2.9896680544        5.6768837652
 N         2.7974840511        3.8388429462        4.9845350161
 H         1.8614708302        5.5474536372        4.7816095587
24
 i =        1, E =     -1520.060762628618249
 Co         1.1685651217        2.8260202452        3.0264753259
 Co         2.4023178502        0.4770639260        3.0319095009
 Co         5.0472841574        0.3857714917        3.0302810312
 Co         3.6889520356        2.6383078344        3.0148793518
 Co         6.1960477900        2.6421759488        3.0298721583
 Co         0.0402965101        4.7928326076        3.0235162778
 Co         2.6843000000        4.7397766796        3.0342483468
 Co         1.2337596625        6.7816587467        3.0352407013
 Co         3.6151312929        6.9193137403        3.0306218677
 Co         4.9990479517        4.8282021718        3.0294277509
 C         2.3276562303        4.3368043044        6.8723147657
 C         3.2000904773        3.3127043738        6.8348075166
 C         3.7411881984        2.7632431404        7.9938801522
 C         3.3941540526        3.3658733856        9.2208257041
 C         2.5312885486        4.4921360994        9.2466174187
 C         1.9840008912        4.9898592421        8.0482726852
 H         4.3988955477        1.9179657354        7.9562580996
 H         3.7853152496        2.9763143511        10.1388647677
 H         2.2902299418        4.9642420792        10.1763070476
 H         1.3303412153        5.8355674518        8.0409775258
 N         1.8666705097        4.5872381258        5.5197862308
 N         3.438979892        2.9896680544        5.4332711215
 N         2.7974840511        3.8388429462        4.7409223724
 H         1.8614708302        5.5474536372        4.5379969149
24
 i =        1, E =     -1520.043263888980619
 Co         1.1685651217        2.8260202452        3.0264753259
 Co         2.4023178502        0.4770639260        3.0319095009
 Co         5.0472841574        0.3857714917        3.0302810312
 Co         3.6889520356        2.6383078344        3.0148793518
 Co         6.1960477900        2.6421759488        3.0298721583
 Co         0.0402965101        4.7928326076        3.0235162778
 Co         2.6843000000        4.7397766796        3.0342483468
 Co         1.2337596625        6.7816587467        3.0352407013
 Co         3.6151312929        6.9193137403        3.0306218677
 Co         4.9990479517        4.8282021718        3.0294277509
 C         2.3276562303        4.3368043044        6.6287021219
 C         3.2000904773        3.3127043738        6.5911948729
 C         3.7411881984        2.7632431404        7.7502675085
 C         3.3941540526        3.3658733856        8.9772130603
 C         2.5312885486        4.4921360994        9.0030047749
 C         1.9840008912        4.9898592421        7.8046600415
 H         4.3988955477        1.9179657354        7.7126454559
 H         3.7853152496        2.9763143511        9.8952521239
 H         2.2902299418        4.9642420792        9.9326944039
 H         1.3303412153        5.8355674518        7.7973648821
 N         1.8666705097        4.5872381258        5.2761735871
 N         3.438979892        2.9896680544        5.1896584778
 N         2.7974840511        3.8388429462        4.4973097287
 H         1.8614708302        5.5474536372        4.2943842712
24
 i =        1, E =     -1519.973393723704476
 Co         1.1685651217        2.8260202452        3.0264753259
 Co         2.4023178502        0.4770639260        3.0319095009
 Co         5.0472841574        0.3857714917        3.0302810312
 Co         3.6889520356        2.6383078344        3.0148793518
 Co         6.1960477900        2.6421759488        3.0298721583
 Co         0.0402965101        4.7928326076        3.0235162778
 Co         2.6843000000        4.7397766796        3.0342483468
 Co         1.2337596625        6.7816587467        3.0352407013
 Co         3.6151312929        6.9193137403        3.0306218677
 Co         4.9990479517        4.8282021718        3.0294277509
 C         2.3276562303        4.3368043044        6.3850894782
 C         3.2000904773        3.3127043738        6.3475822292
 C         3.7411881984        2.7632431404        7.5066548648
 C         3.3941540526        3.3658733856        8.7336004166
 C         2.5312885486        4.4921360994        8.7593921312
 C         1.9840008912        4.9898592421        7.5610473978
 H         4.3988955477        1.9179657354        7.4690328122
 H         3.7853152496        2.9763143511        9.6516394802
 H         2.2902299418        4.9642420792        9.6890817601
 H         1.3303412153        5.8355674518        7.5537522384
 N         1.8666705097        4.5872381258        5.0325609434
 N         3.438979892        2.9896680544        4.9460458341
 N         2.7974840511        3.8388429462        4.253697085
 H         1.8614708302        5.5474536372        4.0507716275
