      27
 i =        1, E =      -184.8438747888
  C        -1.0723353823        1.1115277679        0.3093652714
  O        -0.3640191068        1.8995130197        0.9698763781
  O        -0.5673259408       -0.1332940006       -0.1594072562
  H        -1.2956147367       -0.7680799397       -0.1814784646
  C        -2.5037801592        1.5244709255        0.0601356054
  C        -4.0213582677        1.3862557414        0.4436257800
  H        -2.6790020254        0.4664915881       -0.1811696210
  H        -2.3740624373        2.2576766147        0.8332727181
  O        -3.9049218740       -0.0082670658       -0.0467252997
  H        -3.2106921582       -0.5035757484        0.4120791975
  C        -5.5468912162        1.1343485199        0.2155500649
  C        -6.4374522082        1.9116985985        1.1652498888
  O        -6.6810227858        3.1510649242        1.0549877900
  O        -6.8627565597        1.2244779748        2.3284783162
  H        -5.5880646254        1.5741852082       -0.7694401020
  H        -5.7509581576        0.0784605221        0.2154353606
  H        -7.0408289156        1.8622913654        3.0327109081
  C        -4.2310345482        2.9114837634        0.3376886039
  O        -5.4062223100        3.3549945885        0.1367180625
  O        -3.1490980757        3.7834268686        0.0257957613
  H        -2.8087403471        4.1512964306        0.8494045452
  O         1.5764614459        2.7140637702        0.5060513825
  H         1.2763464612        1.8038259094        0.6366380536
  H         0.7200437671        3.1550457502        0.4375038878
  O        -9.7189376621        1.3394887913        0.4350654247
  H        -8.9414582874        0.7801067329        0.5283997721
  H        -9.4427944638        2.2356971514        0.6532353818
      27
 i =        2, E =      -185.0113254815
  C        -1.0268155172        1.0861708476        0.3575943566
  O        -0.3124878023        1.8135083090        1.0624133062
  O        -0.5437698707       -0.1393295874       -0.1368950670
  H        -1.2793559405       -0.7723144738       -0.2131977552
  C        -2.4210293309        1.5099739753        0.1457137483
  C        -4.0599889449        1.4307463525        0.2436257800
  H        -2.7100905080        0.4772431574       -0.3475781335
  H        -2.3416124135        2.3330427791        0.8491880178
  O        -3.9280778919       -0.1462120060       -0.0158316292
  H        -3.2351285720       -0.5762178634        0.5352624845
  C        -5.6501604833        1.1168193877        0.2261387048
  C        -6.4390517153        1.9043665832        1.2232331317
  O        -6.6619093480        3.1527194020        1.2292324792
  O        -6.8837923915        1.1943836186        2.3237344868
  H        -5.6817175969        1.5508743595       -0.7713993936
  H        -5.8389229291        0.0555290754        0.2510148363
  H        -7.0671417578        1.8720040150        3.0029226376
  C        -4.2540822346        2.9574014455        0.1979258793
  O        -5.4353135820        3.3669164823       -0.0444058642
  O        -3.1813616868        3.8870689581        0.0910890924
  H        -2.7528735621        4.2168460919        0.9004782819
  O         1.6604000027        2.7589570673        0.4570596561
  H         1.3290430993        1.8562783590        0.6489379104
  H         0.7790454676        3.1767118050        0.4411545942
  O        -9.7284192431        1.3335121138        0.4425887712
  H        -8.9386261277        0.7841629864        0.5340800401
  H        -9.4349781673        2.2316939836        0.6514382624
      27
 i =        3, E =      -185.1030140756
  C        -1.0274758973        0.9972352471        0.4965173782
  O        -0.2781526597        1.7112039594        1.1493550355
  O        -0.5060156397       -0.1412788944       -0.1274908959
  H        -1.2547726119       -0.7630086640       -0.2650318536
  C        -2.3680870676        1.4917504838        0.2269414388
  C        -4.0871518816        1.4636710601        0.1569058937
  H        -2.7637977168        0.5094069593       -0.5196464142
  H        -2.3261336586        2.4458757397        0.8079795973
  O        -3.9430186932       -0.2475460710       -0.0021285595
  H        -3.2863366317       -0.6083237554        0.6809633524
  C        -5.7136106188        1.1178195278        0.2483611771
  C        -6.4378609130        1.8985277203        1.2773695593
  O        -6.5980124499        3.1417512432        1.3575515709
  O        -6.8319605578        1.1374183205        2.3365781768
  H        -5.8601184515        1.5040523151       -0.7657370135
  H        -5.9107485891        0.0537310250        0.3037293057
  H        -7.1158234667        1.8486795807        2.9754121115
  C        -4.2552783785        2.9849055388       -0.0020741207
  O        -5.3980342271        3.4312708952       -0.2088005228
  O        -3.2033200014        3.9681311438        0.0848186223
  H        -2.7821696695        4.2070835092        0.9438173045
  O         1.7375085976        2.7968528367        0.3911956514
  H         1.4098408700        1.9023734911        0.6623740815
  H         0.8513077371        3.2185027769        0.4403804670
  O        -9.7425052784        1.3262567836        0.4612144257
  H        -8.9394108979        0.7875189310        0.5421434315
  H        -9.4276349846        2.2274750660        0.6477070545
      27
 i =        4, E =      -185.1556015575
  C        -1.0309226095        0.9391976492        0.6121724621
  O        -0.2253976243        1.5884631543        1.2804351657
  O        -0.5128062056       -0.1503917177       -0.0752642361
  H        -1.2346365023       -0.7894715537       -0.3376795090
  C        -2.3614230621        1.4931631813        0.2927859607
  C        -4.1134426026        1.4753861585        0.1563930597
  H        -2.8114275960        0.5759249236       -0.6387820110
  H        -2.2555568731        2.5518627580        0.7089049724
  O        -3.9405791932       -0.3196840498       -0.0385086335
  H        -3.3636586203       -0.6344011330        0.7675036280
  C        -5.7471675275        1.1281712468        0.2636998299
  C        -6.3756846461        1.9130761205        1.3659612502
  O        -6.5501872255        3.1131741136        1.4394539369
  O        -6.8287295140        1.1178140435        2.3518954153
  H        -6.0490685626        1.4731004384       -0.7591486641
  H        -5.9502952065        0.0605875330        0.3742254004
  H        -7.1634872125        1.7948615654        2.9999293764
  C        -4.2549144784        3.0166135156       -0.1326324412
  O        -5.3606298456        3.4795334742       -0.4088005228
  O        -3.2435782551        4.0264740095        0.0305736264
  H        -2.8648193360        4.1597203678        0.9540499256
  O         1.8144369671        2.8498301017        0.3265150282
  H         1.5164074260        1.9620180090        0.6580413022
  H         0.9362776499        3.2789615179        0.4237587463
  O        -9.7561790473        1.3236262344        0.4706275359
  H        -8.9505297125        0.7835636110        0.5502513289
  H        -9.4303902627        2.2271638756        0.6411505626
      27
 i =        5, E =      -185.1913141099
  C        -1.0470364026        0.8736723354        0.7006269338
  O        -0.2211327400        1.4771727523        1.3949678522
  O        -0.5277589567       -0.1774474311       -0.0224259998
  H        -1.2349708609       -0.8023792419       -0.3842620643
  C        -2.3723104756        1.5182889376        0.2958452459
  C        -4.1108726839        1.5028096386        0.1903437762
  H        -2.8294482963        0.6568756020       -0.6521784835
  H        -2.1764239946        2.5849050400        0.6040706534
  O        -3.9160910620       -0.3541162269       -0.0775897941
  H        -3.4234661103       -0.6661236918        0.7607276508
  C        -5.7432112152        1.1450225781        0.3154436289
  C        -6.4260264852        1.9055064356        1.3808564453
  O        -6.4786923454        3.1385030648        1.5700874183
  O        -6.8055906016        1.0854187926        2.3828919144
  H        -6.1842311233        1.4564329068       -0.7034464020
  H        -5.9547250470        0.0798189273        0.4357115974
  H        -7.2067062632        1.7308184853        3.0324113056
  C        -4.2585132704        3.0546940170       -0.2608388747
  O        -5.3427696318        3.4927432780       -0.6088005228
  O        -3.2407650788        4.0372767188       -0.0110092672
  H        -2.9555394053        4.1391731060        0.9407918415
  O         1.8610265300        2.8843897317        0.2857386477
  H         1.6078788973        2.0025583206        0.6423567853
  H         1.0069359091        3.3364023019        0.4007909200
  O        -9.7629625554        1.3256202039        0.4637432417
  H        -8.9653180854        0.7758643319        0.5592739916
  H        -9.4382554752        2.2285937180        0.6343984046
      27
 i =        6, E =      -185.2243038816
  C        -1.0656876851        0.8172646845        0.7615797537
  O        -0.2603642649        1.4034993249        1.4832412463
  O        -0.5539316866       -0.2080541452        0.0173220258
  H        -1.2516993881       -0.8007491695       -0.3978515346
  C        -2.3905972478        1.5382106113        0.2781893492
  C        -4.1054359407        1.5287544536        0.2180609650
  H        -2.8209592605        0.7291019614       -0.6096878475
  H        -2.1100852419        2.5897805264        0.4950949384
  O        -3.8821528110       -0.3690278981       -0.1419350968
  H        -3.4754533782       -0.6850294365        0.7200697587
  C        -5.7393095683        1.1586488643        0.3723181643
  C        -6.3699826869        1.9403764788        1.4830579385
  O        -6.4419649091        3.1358236266        1.6181925834
  O        -6.8191563108        1.0437074931        2.4091326406
  H        -6.2392871454        1.4485275257       -0.6343318321
  H        -5.9370445267        0.0932134831        0.4935264571
  H        -7.2294097655        1.6593512273        3.0661853613
  C        -4.2667409786        3.0943778266       -0.3401787840
  O        -5.3276660547        3.5035857032       -0.8088005228
  O        -3.2448665092        4.0353704557       -0.0536080156
  H        -3.0497113846        4.1234355459        0.9130286752
  O         1.8937185910        2.9126566883        0.2706305102
  H         1.6772266832        2.0366890478        0.6270829702
  H         1.0637507466        3.3859792571        0.3818647712
  O        -9.7669948662        1.3277270726        0.4560530532
  H        -8.9801296871        0.7671737503        0.5695346938
  H        -9.4464511893        2.2299940787        0.6278100760
      27
 i =        7, E =      -185.2578292637
  C        -1.0836233271        0.7775653698        0.7936137044
  O        -0.3232204033        1.3260958512        1.5884214015
  O        -0.6235826982       -0.2474219834        0.0430267059
  H        -1.3039636658       -0.7922844235       -0.3870800929
  C        -2.4227159456        1.5341232485        0.2656601598
  C        -4.0927819483        1.5451150472        0.2598406380
  H        -2.7774542499        0.8014929257       -0.5521523032
  H        -2.0446400738        2.5951482981        0.3365517920
  O        -3.8293410562       -0.3722212501       -0.2722086985
  H        -3.5508603118       -0.6918040287        0.6538155355
  C        -5.7099360205        1.1667128488        0.4277271348
  C        -6.3339843415        1.9483080216        1.5531518039
  O        -6.3734767366        3.1437757776        1.7163657305
  O        -6.8589149234        1.0458817315        2.4454311305
  H        -6.2201572812        1.4701794415       -0.5384331945
  H        -5.8831523113        0.0995501107        0.5797859506
  H        -7.2690557675        1.5703801354        3.1574261126
  C        -4.2721046864        3.1148008417       -0.4451475929
  O        -5.2837127370        3.5028915638       -1.0088005228
  O        -3.2936974718        4.0543222551       -0.1321298964
  H        -3.1758110346        4.0916166813        0.8590024706
  O         1.9419702914        2.9380446309        0.2264655291
  H         1.7481281514        2.0741645268        0.6249321908
  H         1.1294677098        3.4415407945        0.3752495474
  O        -9.7734181627        1.3265856484        0.4602270164
  H        -8.9967730813        0.7577838802        0.5856290785
  H        -9.4541107422        2.2300100536        0.6187751673
      27
 i =        8, E =      -185.2828978547
  C        -1.1213297514        0.7390184296        0.8498925456
  O        -0.4032000656        1.2684338423        1.6767974390
  O        -0.6763203638       -0.2916694038        0.1297254436
  H        -1.3864242253       -0.7528841618       -0.4097702004
  C        -2.4542556500        1.5307577123        0.2645005647
  C        -4.0683714214        1.5701265025        0.2975182762
  H        -2.7239421722        0.8802064952       -0.5901850405
  H        -2.0231736917        2.5597480159        0.2159791749
  O        -3.7808897070       -0.3652933720       -0.3781305816
  H        -3.6019200792       -0.7050108675        0.5112304422
  C        -5.6595593158        1.1797401857        0.5088627582
  C        -6.3057470733        1.9453139876        1.6363923362
  O        -6.3106444165        3.1431205317        1.8073721311
  O        -6.9129141271        1.0432178250        2.4941535376
  H        -6.1463353536        1.4873959750       -0.4264600710
  H        -5.8092480290        0.1145822613        0.6574856237
  H        -7.3144689930        1.5027597500        3.2450375225
  C        -4.2914929797        3.1318090063       -0.5154350212
  O        -5.2583770855        3.4631143240       -1.2088005228
  O        -3.3616648920        4.0658630112       -0.1943415638
  H        -3.2754760230        4.0776227868        0.7833371938
  O         1.9803327546        2.9604810803        0.1841505974
  H         1.8049377303        2.1094051257        0.6278702170
  H         1.1842227635        3.4903483811        0.3731817883
  O        -9.7774232866        1.3244985781        0.4592617795
  H        -9.0097201009        0.7516919170        0.6054905168
  H        -9.4575470113        2.2270148054        0.6099918832
      27
 i =        9, E =      -185.3008922779
  C        -1.1698433326        0.7082750336        0.9108171870
  O        -0.5018134528        1.2008707901        1.7978893408
  O        -0.7579219949       -0.3368810303        0.1862975660
  H        -1.4877122196       -0.6979018478       -0.3786858849
  C        -2.4790168178        1.5374672502        0.2802482110
  C        -4.0346832468        1.5943017571        0.2886424277
  H        -2.6405138834        0.9819975752       -0.7049055649
  H        -2.0259453596        2.5032864409        0.1147292174
  O        -3.7158196090       -0.3431220074       -0.5781305816
  H        -3.7112857961       -0.7124441184        0.3913717215
  C        -5.5888131944        1.1845855314        0.6234033379
  C        -6.2609714058        1.9451268145        1.7524721318
  O        -6.2350100842        3.1427840275        1.9262070191
  O        -6.9552933537        1.0238030783        2.5523375253
  H        -6.0562417792        1.4986149935       -0.2868582888
  H        -5.7115280103        0.1211589439        0.7479935693
  H        -7.3705860008        1.4377145951        3.3265683652
  C        -4.3166182919        3.1320152838       -0.6502137246
  O        -5.2172471499        3.4059313674       -1.3937091921
  O        -3.4475207059        4.0975483631       -0.2457043356
  H        -3.3647303036        4.0628094739        0.7125981207
  O         2.0230923088        2.9903100795        0.1426797285
  H         1.8621092208        2.1580990588        0.6234403444
  H         1.2482133056        3.5393555991        0.3642552256
  O        -9.7793940968        1.3226293961        0.4541113610
  H        -9.0220786966        0.7461876606        0.6329306397
  H        -9.4581686133        2.2231902006        0.5997999465
      27
 i =       10, E =      -185.3176867387
  C        -1.2285136768        0.7338266934        0.9136363957
  O        -0.5753136452        1.1874598708        1.8403139384
  O        -0.8345854314       -0.3441576192        0.1906921666
  H        -1.5715210740       -0.6375506545       -0.3080668909
  C        -2.5050994418        1.5322554856        0.2743224647
  C        -3.9988609333        1.6172963495        0.2494481215
  H        -2.5831730712        1.0292082357       -0.7520984584
  H        -2.0717925477        2.4654727897        0.0646968788
  O        -3.7104162308       -0.3265336536       -0.6535728027
  H        -3.7194156702       -0.7182501692        0.1913717215
  C        -5.4989682715        1.1891894287        0.6888020177
  C        -6.2203661337        1.9193673475        1.8146158819
  O        -6.1769649703        3.1256592142        1.9910584010
  O        -6.9540290175        1.0116539093        2.5856939762
  H        -5.9934645709        1.5001118325       -0.2239042347
  H        -5.6251389209        0.1243426222        0.8052094626
  H        -7.3989292195        1.4358028220        3.3482748562
  C        -4.3127083598        3.1336670987       -0.6290706809
  O        -5.1924784416        3.2944069305       -1.4742490959
  O        -3.5201795162        4.1577034923       -0.2720737563
  H        -3.3761424731        4.0271440423        0.6970556026
  O         2.0294614696        2.9961248627        0.1436810610
  H         1.8697867788        2.1755316378        0.6205241811
  H         1.2707010617        3.5508080797        0.3589903154
  O        -9.7758312779        1.3204156416        0.4577882402
  H        -9.0220665244        0.7461314216        0.6554129542
  H        -9.4514147451        2.2216244325        0.5946570722
      27
 i =       11, E =      -185.3327362842
  C        -1.3131866227        0.7683597576        0.9277840524
  O        -0.6608574824        1.2135539323        1.8185502545
  O        -0.8805653362       -0.3698056174        0.3337920639
  H        -1.7166310569       -0.5299789284       -0.3606967345
  C        -2.5217019416        1.5205728317        0.2714702157
  C        -3.9703891413        1.6258879874        0.1528596444
  H        -2.4983687345        1.0572205492       -0.7210917390
  H        -2.0995647162        2.5198510018       -0.0178975183
  O        -3.7088407192       -0.2898856397       -0.7929359920
  H        -3.7970391900       -0.7506126387        0.0327257936
  C        -5.3931233286        1.1742136588        0.7295714090
  C        -6.1488329427        1.8826054560        1.8712751287
  O        -6.1462110028        3.0898747363        2.0618571697
  O        -6.9053039581        0.9985211716        2.6098658430
  H        -5.9630373619        1.4854858221       -0.1940553419
  H        -5.5158566334        0.0978840566        0.8626932173
  H        -7.4062479378        1.4774092069        3.3233980060
  C        -4.3198489426        3.0924615353       -0.6068414796
  O        -5.1698031130        3.1605129267       -1.4491084423
  O        -3.5986220175        4.2018432336       -0.2384472266
  H        -3.3238564189        4.0241943250        0.6935436410
  O         2.0230262334        2.9855386178        0.1414525954
  H         1.8542864052        2.1751723416        0.6369267352
  H         1.2748907140        3.5482011669        0.3675526507
  O        -9.7686126402        1.3184635764        0.4650650409
  H        -9.0150852326        0.7501745429        0.6828422030
  H        -9.4374648102        2.2215550808        0.5902580349
      27
 i =       12, E =      -185.3473599928
  C        -1.3653456363        0.8257087626        0.9829858413
  O        -0.7031368400        1.3037863406        1.8276889576
  O        -1.0109437733       -0.3166693065        0.2763164722
  H        -1.7513688809       -0.5820333852       -0.3517061306
  C        -2.5074152362        1.5543121719        0.2575105852
  C        -3.9610184590        1.6166039780        0.1159936241
  H        -2.4388602780        1.0805663910       -0.7125428763
  H        -2.1109233372        2.5495929957        0.0168537422
  O        -3.7051842441       -0.2247581935       -0.8727928398
  H        -3.8863253308       -0.7957003441       -0.0084067020
  C        -5.3307677660        1.1546205447        0.7161742299
  C        -6.0921595542        1.8622854571        1.8687590058
  O        -6.1441446544        3.0686863740        2.0773043411
  O        -6.8436592401        0.9918490428        2.5952714352
  H        -5.9630840937        1.4472427142       -0.2124612369
  H        -5.4476319127        0.0718220790        0.8651099912
  H        -7.3614955868        1.5400814424        3.2493209969
  C        -4.3397278462        3.0327998984       -0.5238858156
  O        -5.1885488035        3.0611948888       -1.4101312541
  O        -3.6198818292        4.1471928036       -0.1490648813
  H        -3.2380573361        4.0759272891        0.6862195888
  O         2.0012963797        2.9586149870        0.1331234670
  H         1.8148095145        2.1495306083        0.6710193114
  H         1.2538127050        3.5399949902        0.3912910458
  O        -9.7615085861        1.3201722682        0.4642551619
  H        -9.0062047689        0.7561316835        0.6958875947
  H        -9.4267730651        2.2234041585        0.5893257890
      27
 i =       13, E =      -185.3216805085
  C        -1.3874685989        0.8991206307        0.9194816752
  O        -0.7172145778        1.3367127678        1.8846838272
  O        -1.0825795294       -0.2792205690        0.2523139136
  H        -1.7440138640       -0.6433570539       -0.3173984143
  C        -2.5088231552        1.6173431925        0.2740702317
  C        -4.0003661267        1.5999168428        0.1601156102
  H        -2.4418748225        1.1144510211       -0.7633209432
  H        -2.0998574181        2.5850869232        0.1256877886
  O        -3.7574498822       -0.1722712826       -0.8268473452
  H        -3.8881257158       -0.7990834045       -0.0824911886
  C        -5.3355670384        1.1205938550        0.6939564630
  C        -6.0405218030        1.8812180379        1.8513495592
  O        -6.1631887548        3.0735159484        2.0506501725
  O        -6.7999898899        0.9806425264        2.5488627444
  H        -5.9444541247        1.3866987253       -0.2315751657
  H        -5.4158638687        0.0291874013        0.8372604813
  H        -7.2775821138        1.5926273030        3.1515603344
  C        -4.3605026519        2.9333436537       -0.5704095324
  O        -5.1832112900        3.0607034777       -1.2557068000
  O        -3.6885812975        4.1414002294       -0.1088856004
  H        -3.1163037652        4.0262472819        0.7189036827
  O         1.9644453775        2.9348174329        0.1842640670
  H         1.7634366435        2.1206895406        0.6758236269
  H         1.2210304302        3.5192787575        0.4014243420
  O        -9.7560014245        1.3248741613        0.4577101212
  H        -9.0001458962        0.7613774114        0.6993508262
  H        -9.4216730179        2.2272581466        0.5889267672
      27
 i =       14, E =      -185.3515073419
  C        -1.4101601579        0.8662671942        0.9192881005
  O        -0.7365177928        1.2678544019        1.9475863281
  O        -1.0751993574       -0.3146471624        0.3246339968
  H        -1.7695358190       -0.6170472602       -0.3072098512
  C        -2.5220981227        1.6505668949        0.2880067936
  C        -4.0080493420        1.6037945041        0.2104107663
  H        -2.4421475282        1.1794025385       -0.8286808112
  H        -2.0714919258        2.6199825882        0.1004753599
  O        -3.7654146852       -0.1439385986       -0.8786605541
  H        -3.9322141555       -0.7665864458       -0.1106331345
  C        -5.3279907981        1.1146412566        0.7314488856
  C        -6.0214846640        1.8987113996        1.8712264266
  O        -6.0962282885        3.0979876584        2.0893023345
  O        -6.7949132572        0.9703601042        2.5458047130
  H        -5.9451844109        1.3555034259       -0.1790361024
  H        -5.3907007263        0.0262963493        0.8726788975
  H        -7.2771034528        1.5585316752        3.1573523681
  C        -4.3688064586        2.9347247801       -0.5476545980
  O        -5.1954000913        3.0179769677       -1.4557068000
  O        -3.7491656040        4.1585867227       -0.1399225008
  H        -3.1274087947        3.9630136778        0.7195839650
  O         1.9725549694        2.9452516815        0.1932069206
  H         1.7890806275        2.1336453578        0.6635737794
  H         1.2439930114        3.5395866669        0.3932074890
  O        -9.7586131417        1.3260483462        0.4601060443
  H        -9.0077160088        0.7574699855        0.7075242562
  H        -9.4254758699        2.2299040035        0.5832092237
      27
 i =       15, E =      -185.3292396805
  C        -1.4345720638        0.6824378755        1.1022385701
  O        -0.7350806367        1.2567713451        1.7962833335
  O        -0.9849986808       -0.3842566816        0.3709862453
  H        -1.7823896072       -0.5402224366       -0.2713461109
  C        -2.4885123178        1.6410382524        0.2084413098
  C        -3.9731648859        1.6619724530        0.1484777893
  H        -2.4692861229        1.2055693152       -0.7616223180
  H        -2.0736819896        2.5951236230        0.0195096231
  O        -3.7767954915       -0.1583392836       -0.8699626991
  H        -3.8759594672       -0.6880237496       -0.1392330784
  C        -5.3360641906        1.1316539019        0.7733846701
  C        -6.0620787135        1.8828062239        1.8726633537
  O        -6.0750978895        3.0798591754        2.0872750962
  O        -6.8318992027        1.0099488566        2.5799798139
  H        -5.9418842654        1.3502633190       -0.1297947544
  H        -5.4200675132        0.0577716337        0.9354826447
  H        -7.3495121015        1.5004890233        3.2623149790
  C        -4.3575681444        3.0116285539       -0.6148056344
  O        -5.1872994016        3.0560539447       -1.5555037367
  O        -3.6216790777        4.0394601374       -0.2005556047
  H        -3.3097227559        4.0158817136        0.6570715123
  O         2.0062477446        2.9702560048        0.1470221535
  H         1.8265994022        2.1619068974        0.6696229489
  H         1.2683881286        3.5559511866        0.3934921938
  O        -9.7692858365        1.3217184448        0.4736139641
  H        -9.0191481458        0.7533929505        0.7048829321
  H        -9.4345252846        2.2285953072        0.5782509896
      27
 i =       16, E =      -185.3853034402
  C        -1.4264087953        0.8047921452        0.9851491363
  O        -0.7597951734        1.2931740297        1.8787630385
  O        -1.0830725459       -0.3638832798        0.3845897236
  H        -1.8199058613       -0.5846682984       -0.2661601051
  C        -2.4819628732        1.6418454800        0.2410067620
  C        -3.9707258265        1.6500814457        0.1309042898
  H        -2.4070907017        1.1990969634       -0.7750638767
  H        -2.0727866495        2.6319514384        0.0591379151
  O        -3.7723590129       -0.0942674662       -0.9311717787
  H        -3.9816597178       -0.7618454950       -0.1765052737
  C        -5.2918808137        1.1313136782        0.7689250789
  C        -6.0377633200        1.8652960000        1.8770130714
  O        -6.0683612788        3.0626899430        2.0769961603
  O        -6.7988003155        0.9888437397        2.5779775982
  H        -5.9446213566        1.3138542980       -0.1431485969
  H        -5.3606735850        0.0527126595        0.9475669031
  H        -7.3190827756        1.5430252885        3.2088473528
  C        -4.3489991612        2.9612734099       -0.5777555300
  O        -5.1745181273        2.9931145931       -1.4794090055
  O        -3.6827126689        4.0788566890       -0.1944172356
  H        -3.2621875053        3.9844531911        0.6754923850
  O         1.9795064167        2.9518666769        0.1682505046
  H         1.7904317926        2.1439309183        0.6829065210
  H         1.2498885252        3.5480175147        0.4039663469
  O        -9.7629691655        1.3235696340        0.4622658327
  H        -9.0130036381        0.7591487080        0.7144503173
  H        -9.4275749130        2.2274645458        0.5771764295
      27
 i =       17, E =      -185.3934254529
  C        -1.4630861883        0.8577636121        0.9924225895
  O        -0.7936366729        1.3121398388        1.9283545372
  O        -1.1742705070       -0.3470939937        0.4185390220
  H        -1.8651170202       -0.5955102656       -0.2436385736
  C        -2.4908158473        1.6618863271        0.2512259632
  C        -3.9838563056        1.6206115669        0.1546269505
  H        -2.3780645115        1.2419513731       -0.8193503995
  H        -2.0510775494        2.6615054736        0.0774436403
  O        -3.8090842666       -0.0564597207       -0.9662637525
  H        -3.9973382825       -0.7258253360       -0.2893314736
  C        -5.2653123575        1.1077034924        0.7811138238
  C        -5.9772893848        1.8789359783        1.8976815419
  O        -6.0139157950        3.0815899671        2.1089288088
  O        -6.7682872108        0.9765620959        2.5664115336
  H        -5.9218985704        1.2698950326       -0.1169395530
  H        -5.2853758853        0.0223838204        0.9902478256