      56
 i =        1, E =     -3884.9498699339
 Co         2.0535827603        6.0496094327        1.9468227566
 Co         0.0649175714        4.0755322585        0.1048890736
 Co         2.0387943468        2.0020582868        5.9955215122
 Co         0.0313061346       -0.0281346616        4.0125746664
 Co         6.0700820225        6.0826565797        6.0389818273
 Co         4.0366037711        4.0301356547        4.0037379528
 Co         6.0208211881        2.0327497068        1.9189631330
 Co         4.0493041572        0.0001429254       -0.0006591851
 Co         3.0375107623        3.0100620054        1.0323124240
 Co         3.0082831902        0.9743986899        3.0005377624
 Co         4.9251405650        7.0503532089        2.9774265152
 Co         1.0317785356        0.9602493250        1.0044147606
 Co         3.0552893260        7.0223440787        5.0712470203
 Co         2.9870850035        5.0313636636        7.0997668958
 Co         4.9991784968        3.0801713369        7.0136103696
 Co         0.9955775380        5.0089126976        5.0608490659
 Co         7.0113506972        3.0296637876        5.0837141567
 Co         6.8777913468        1.2057335800        7.0778357857
 Co         0.9707941499        7.0071766320        7.0182119153
 Co         5.0533812438        0.9481554032        4.9642854316
 Co         7.1232620542        6.8473515442        0.9915537517
 Co         7.1302068996        4.9782342671        2.9149074697
 Co         1.0139669899        3.0658308449        2.9548686779
 Co         4.9909030655        5.1031272349        1.0385698788
  O         6.9759010505        3.0291151832        7.0576370210
  O         7.1679159402        0.7767122153        1.0387221833
  O         0.8046695627        0.8970086768        7.0677386211
  O         0.9556279328        7.1187881738        0.8761051883
  O         1.0934862154        1.1237794644        2.9404873990
  O         1.1272608624        2.8847431648        1.0576704165
  O         3.0393291753        7.0533816421        3.1701679049
  O         2.9562333416        1.0979259097        1.0899958213
  O         6.7783963928        6.9944165640        2.9893375433
  O         7.1057797230        4.9460510452        4.8614853233
  O         0.9988822465        5.0003616131        3.1207196035
  O         0.8769073498        3.1028067613        4.9392589502
  O         1.0803015704        5.0848624559        6.9927645903
  O         1.1153570847        6.9401377878        5.1184669500
  O         3.0695172800        3.1110332687        7.1631327878
  O         2.9678317170        5.0828429276        5.1551497734
  O         2.9299813261        2.9154282566        2.9474076273
  O         3.1246133711        0.9042912719        4.9594663927
  O         4.9598439100        0.9115513017        3.0729207243
  O         4.9613950364        7.0632431520        4.8904386612
  O         5.0794489865        1.1262380725        6.9328664010
  O         5.0895267061        2.8941645975        5.1043300565
  O         7.1022930750        7.2663708856        7.1160056103
  O         6.9627207937        1.0399681041        5.0474366981
  O         2.9142308356        6.9918743402        6.9597271793
  O         3.1429992393        4.9013225959        0.9329596251
  O         4.9219309170        5.0226936848        7.1559657716
  O         4.9813374104        3.2010563549        0.9339147925
  O         5.2025746528        5.1354334883        2.9691489524
  O         5.1560898866        7.0217769965        1.0632655102
  O         7.1417977150        3.0210481878        3.1420477088
  O         6.8779804037        5.0083075116        1.0514841242
      56
 i =        2, E =     -3942.4734685869
 Co         2.1029989600        6.0728159665        1.8973105057
 Co         0.1327025300        4.1221999263        0.2081531570
 Co         2.0676812184        2.0036768166        5.9489709315
 Co         0.0633969032       -0.0492882768        4.0307811201
 Co         6.1192886977        6.1477123565        6.0272366573
 Co         4.0524337445        4.0492569836        3.9768106259
 Co         6.0067675162        2.0622361136        1.8449451852
 Co         4.0762341302        0.0130117997        0.0078480569
 Co         3.0678481667        2.9988077850        1.0663226963
 Co         3.0036755139        0.9395259599        2.9866139063
 Co         4.8079379604        7.0632275859        2.9188717650
 Co         1.0096474450        0.9006705730        1.0431264087
 Co         3.1111463627        6.9880222166        5.0952330004
 Co         2.9545283747        5.0331307885        7.1642233876
 Co         4.9830886052        3.1521935593        6.9871376430
 Co         0.9996605866        4.9722168292        5.0413627581
 Co         6.9677129210        3.0388216037        5.1374545386
 Co         6.7024273422        1.4057335800        7.1297717229
 Co         0.9418822487        6.9574157311        6.9058002874
 Co         5.0762667688        0.8938814883        4.9069745874
 Co         7.2277276179        6.6478050510        1.0789655607
 Co         7.2265334780        4.9486308638        2.8028913884
 Co         1.0309175956        3.0982404955        2.8876234373
 Co         4.9293524981        5.1762424525        1.0560353854
  O         7.0254420687        3.1456762407        7.1801899227
  O         7.1549796654        0.6507601478        1.1933861448
  O         0.6980919975        0.9419214388        7.0096216773
  O         1.0470287294        7.0612750141        0.7890284887
  O         1.0831271218        1.1284288091        3.0014701207
  O         1.1572282670        2.8701666386        1.0038303094
  O         2.9540528615        6.9597463478        3.2137916017
  O         2.9743095348        1.0836789516        1.0701887669
  O         6.6068488565        7.0721292373        3.1446318346
  O         7.0689070798        4.9713016860        4.7943852404
  O         1.0942619058        5.0777216225        3.0888090041
  O         0.8379652000        3.0612891806        4.9461727815
  O         1.0427582103        4.9824060996        6.9944809022
  O         1.1326653890        6.9640363970        5.0805291954
  O         3.0165792115        3.1013172559        7.1874082224
  O         3.0361835948        5.0193486101        5.1874704617
  O         2.9588150803        2.9179445534        2.9907383689
  O         3.1292961992        0.8994255003        4.9999190870
  O         5.0020961522        0.9299505948        3.0257331302
  O         5.0135031417        6.9794099508        4.8494002339
  O         5.0167320491        1.1552724183        6.9298825360
  O         5.0298939041        2.8813637084        5.0732985109
  O         7.0339957351        7.3867555263        7.1639777692
  O         6.9904107392        0.9666266481        4.9717259615
  O         2.9507035316        7.0522467657        6.9715790693
  O         3.1381848866        4.8779409906        0.9662260722
  O         4.9250002729        5.1335744091        7.1504761352
  O         5.0537931805        3.2779531117        0.9724520713
  O         5.2817593762        5.1390804795        3.0151139325
  O         5.1717239383        7.1077883813        0.9958675919
  O         7.1460663602        2.9392233145        3.1585581890
  O         6.7963728310        4.8614928165        0.9716247908
      56
 i =        3, E =     -3896.1421115535
 Co         2.1534917471        6.1141287724        1.8411076282
 Co         0.1920211311        4.1900763740        0.2663019973
 Co         2.0986986098        1.9951088364        5.8744117531
 Co         0.0668049589       -0.0423630584        4.0621927949
 Co         6.1828170158        6.1798436307        6.0390267042
 Co         4.0546691210        4.0785679218        3.9401942782
 Co         5.9959240634        2.0851282412        1.7671352825
 Co         4.0808775105        0.0234388472        0.0070635416
 Co         3.0529112269        2.9686962280        1.0776264575
 Co         2.9800071938        0.9028721830        2.9579180570
 Co         4.6899528916        7.0918396046        2.8008814894
 Co         1.0029848849        0.8334854791        1.0503438803
 Co         3.1675510209        6.9362844063        5.1231158309
 Co         2.9530845510        4.9750170202        7.2288472257
 Co         4.9663783184        3.2435149706        6.9643963355
 Co         1.0052623399        4.9474244624        5.0115157559
 Co         6.9276743140        3.0432373201        5.1850972874
 Co         6.5584064474        1.6057335800        7.2000418261
 Co         0.9170576764        6.9231997444        6.7883238726
 Co         4.9894335447        0.8687289256        4.9277133731
 Co         7.3618892004        6.4562897610        1.1639043254
 Co         7.3367385014        4.9139929693        2.7214193196
 Co         1.0865192842        3.1386087768        2.8241412597
 Co         4.8738329310        5.2512762413        1.1583759678
  O         7.0686450194        3.2553876037        7.2919566968
  O         7.1539901799        0.5230400219        1.3607114894
  O         0.6141898528        0.9967428809        6.9219559945
  O         1.1502366547        7.0062333638        0.6974860967
  O         1.0526835640        1.1185715164        3.0468000057
  O         1.1328724711        2.8675037422        0.9304587413
  O         2.8674748714        6.8689320095        3.2611850838
  O         2.9934489000        1.0585634869        1.0445505799
  O         6.4453330055        7.1452307527        3.2985458361
  O         7.0341937745        4.9874584493        4.7452898774
  O         1.1922034944        5.1773757266        3.0440833983
  O         0.7971845056        3.0238583553        4.9692555169
  O         1.0391907867        4.8919382724        6.9847547771
  O         1.1314114619        7.0039702690        5.0214107341
  O         2.9694673290        3.0315279407        7.1975230175
  O         3.1075925727        4.9613031516        5.2146292959
  O         3.0178539739        2.9101466032        3.0144815495
  O         3.1221296557        0.8745796582        5.0155613075
  O         5.0446896844        0.9687927742        2.9913352132
  O         5.0908276175        6.8481002761        4.7715294361
  O         4.9754498468        1.1974285007        6.9916220556
  O         4.9784328418        2.9343517039        5.0390078883
  O         6.9614588864        7.5137347491        7.2072715265
  O         6.9489238926        0.8934456739        4.9121490908
  O         2.9859115471        7.0940167243        6.9825562542
  O         3.1211594434        4.8375688389        1.0026834497
  O         4.9552737643        5.2559918755        7.2066726167
  O         5.0948782164        3.3377610333        1.0163064385
  O         5.3850161403        5.1533330587        3.1221096846
  O         5.2241777931        7.2073331615        0.8761386185
  O         7.1666054685        2.8396628024        3.1733499060
  O         6.7347455233        4.7146217863        0.9092329389
      56
 i =        4, E =     -3895.0332256831
 Co         2.1852358749        6.1538462236        1.7766687054
 Co         0.2891016647        4.2082444078        0.2558082664
 Co         2.1020304639        2.0040133035        5.8197495784
 Co         0.0800709132       -0.0497207777        4.0900366518
 Co         6.2437321063        6.1912578171        6.0804651099
 Co         4.0800531953        4.0956640155        3.9140686740
 Co         5.9823923947        2.1107017719        1.7207252517
 Co         4.1391249951        0.0369748750       -0.0163922524
 Co         3.0516288474        2.9269457831        1.0840590479
 Co         2.9157689374        0.8981956423        2.9412076487
 Co         4.5317019952        7.1243172409        2.6960382730
 Co         1.0168372035        0.7869726443        1.0381424155
 Co         3.2578696399        6.8732666557        5.1676426403
 Co         2.9553030223        4.9197693867        7.2838053416
 Co         4.9384384635        3.3312847757        6.9507091602
 Co         1.0254290687        4.9175143376        5.0061900651
 Co         6.8989331664        3.0507417754        5.2052167034
 Co         6.3974646853        1.7821833944        7.2900392502
 Co         0.8854315421        6.9102259182        6.6748825955
 Co         4.9053136832        0.7982738828        4.9374643416
 Co         7.5168064354        6.2643294963        1.2691671719
 Co         7.4787695015        4.9125162019        2.6087378294
 Co         1.1330593942        3.1802935528        2.7615334292
 Co         4.7731409800        5.3445697366        1.2722179557
  O         7.1001940588        3.3590324055        7.3683684308
  O         7.1607024377        0.4107896190        1.5424047257
  O         0.5148118480        1.0516740367        6.8263657842
  O         1.2659286299        6.9782579343        0.6053400029
  O         0.9907865101        1.1178790826        3.0756775115
  O         1.1267784634        2.8709788156        0.8589170117
  O         2.7413530238        6.8023481887        3.3043385419
  O         3.0343855459        1.0215345154        1.0132427157
  O         6.2552998421        7.2390390090        3.4630578811
  O         7.0046800866        5.0137692226        4.6951069740
  O         1.3125519028        5.2687817788        3.0209432734
  O         0.7585546489        2.9906483678        4.9853440909
  O         1.0508493352        4.8381134554        6.9832766767
  O         1.1625022939        7.0336491076        4.9593077384
  O         2.9078256210        2.9626696425        7.2107233954
  O         3.1924641291        4.8955072865        5.2363558947
  O         3.0653786518        2.9150699073        3.0320445692
  O         3.0976748778        0.8465208292        5.0413774618
  O         5.0552747811        1.0171807894        2.9550809369
  O         5.1857467148        6.6844716025        4.6974614680
  O         4.9377218151        1.2578601716        7.0352885844
  O         4.9383397326        2.9496390832        5.0002633272
  O         6.8877348049        7.6305856147        7.2724355302
  O         6.9170899939        0.8265739191        4.8666965764
  O         3.0182787865        7.1356511082        7.0184017644
  O         3.0707145475        4.7905572090        1.0343847110
  O         4.9767813483        5.3666669939        7.2753839449
  O         5.1408729406        3.4083225252        1.0683457421
  O         5.4979832518        5.1601703678        3.2446293379
  O         5.3012805787        7.3152233630        0.7694238129
  O         7.1838566942        2.7629242106        3.1814195469
  O         6.6437961500        4.5146217863        0.7726759164
      56
 i =        5, E =     -3870.3593768220
 Co         2.1270400669        6.1128954002        1.8048765866
 Co         0.2754108893        4.2197147417        0.2781146133
 Co         2.1197349595        1.9927880629        5.8066872379
 Co         0.0834879744       -0.0283689551        4.1109214016
 Co         6.2432761506        6.1878046396        6.0704540942
 Co         4.0763327634        4.0856645249        3.9057634731
 Co         5.9809802285        2.1004015401        1.7194470969
 Co         4.0900685903        0.0126371929        0.0113071828
 Co         3.0542679398        2.9341799542        1.0734397201
 Co         2.9389999442        0.8477557704        2.9435114412
 Co         4.5672997394        7.1385680696        2.6842767131
 Co         1.0273059796        0.7978292946        1.0349979789
 Co         3.2171755769        6.8914677527        5.1499360959
 Co         2.9649838596        4.9029774216        7.3168260311
 Co         4.9052618418        3.3889152393        6.9485954149
 Co         1.0002572205        4.9271614752        4.9661789917
 Co         6.8870661776        3.0588619027        5.2100206907
 Co         6.4681531900        1.7903766591        7.2788244670
 Co         0.8970271160        6.9503171404        6.6516606944
 Co         4.9397136235        0.8377259976        4.9458101940
 Co         7.5663154537        6.0830747656        1.4691671719
 Co         7.3776973379        5.0365654776        2.5220882435
 Co         1.1391022706        3.1567762583        2.7799422072
 Co         4.7989233200        5.2998119730        1.2896113348
  O         7.0945457459        3.3485267031        7.3686244543
  O         7.1432555419        0.4061619142        1.5480848180
  O         0.5100639674        1.0504203117        6.8317635527
  O         1.2861769364        7.0074748865        0.5447396200
  O         0.9872581217        1.1187646214        3.0694724190
  O         1.1240747850        2.8444609152        0.8563774972
  O         2.7517637691        6.8051303210        3.3197133096
  O         3.0221030062        1.0226572565        1.0211285624
  O         6.2500227988        7.2364199558        3.4801424831
  O         7.0042428579        5.0137560013        4.6776258583
  O         1.3274044195        5.3151439142        2.9860731108
  O         0.7584161368        2.9902514054        4.9882688973
  O         1.0628024756        4.8226501433        6.9756306381
  O         1.1625309365        7.0319376546        4.9387910712
  O         2.9126591395        2.9573963696        7.2099165159
  O         3.1813209221        4.8977741457        5.2367670313
  O         3.0807920763        2.9224862048        3.0398488340
  O         3.0917739377        0.8385809381        5.0424141778
  O         5.0553283207        1.0099723088        2.9614138931
  O         5.1952884753        6.6956693005        4.6923451539
  O         4.9122010246        1.2452922058        6.9947938613
  O         4.9458882472        2.9366807398        4.9857187147
  O         6.8905095663        7.6258404602        7.2683295700
  O         6.9107414461        0.8094483266        4.8562519950
  O         3.0082079811        7.1451831551        7.0129085841
  O         3.0686562340        4.8063880675        1.0249789030
  O         4.9876755002        5.3810264389        7.2769351830
  O         5.1441330050        3.4204247899        1.0765091274
  O         5.5159199443        5.1806942042        3.2339782930
  O         5.3380267523        7.3008096185        0.7876961185
  O         7.1875070808        2.7679642338        3.1742230103
  O         6.6205546065        4.5235958007        0.7895727808
      56
 i =        6, E =     -3898.7104996931
 Co         2.1444799824        6.1252843359        1.7823891843
 Co         0.3755425501        4.1139785953        0.1652809887
 Co         2.1230587453        2.0071441667        5.7527047309
 Co         0.1454726934        0.0294395100        4.0680995821
 Co         6.2939627696        6.2490916333        6.1009190335
 Co         4.1112376471        4.1069551275        3.7963268000
 Co         5.9305702389        2.1193417739        1.7156741018
 Co         4.1059282817       -0.0266188429        0.0380750434
 Co         3.1134017148        2.8838329033        1.0782164875
 Co         2.9555581025        0.8580637168        2.9265566340
 Co         4.4096438262        7.1913831953        2.5588298591
 Co         1.0565091426        0.7423107975        1.0170705696
 Co         3.2863981181        6.7909855372        5.2147673847
 Co         3.0356673312        4.8476742666        7.3221476251
 Co         4.8734955648        3.4910208098        6.9419596898
 Co         0.9983649045        4.8603406418        5.0502387349
 Co         6.8248353689        3.0661121387        5.1792924937
 Co         6.2953783839        1.9563618730        7.3486180116
 Co         0.8567039743        6.9557846188        6.5260780465
 Co         4.8690491811        0.8145478024        4.9435484782
 Co         7.6792949239        6.0604309900        1.5809523895
 Co         7.4999566169        4.9684226487        2.4451355271
 Co         1.1281941739        3.1890182501        2.7271895194
 Co         4.7185231203        5.3808620597        1.4329719151
  O         7.0965055239        3.4351372862        7.3478207672
  O         7.1453734236        0.4282346835        1.7270932070
  O         0.3903491069        1.1484354424        6.7254206658
  O         1.3986503517        6.9548630029        0.4293600731
  O         0.9878154488        1.1088692802        3.0742352560
  O         1.1364092970        2.8288822322        0.7804098945
  O         2.6084326309        6.7259096250        3.3864764697
  O         3.0778531681        0.9715113759        0.9735404257
  O         6.0901688059        7.2807532977        3.6801424831
  O         6.9593068633        5.0389947351        4.6551652053
  O         1.4299723531        5.4162615086        3.0303224919
  O         0.6915127323        2.9269945611        5.0224675256
  O         1.0137539642        4.7371929801        7.1346475507
  O         1.1605180093        7.0532908875        4.8630573596
  O         2.8330661971        2.8688240077        7.2271530397
  O         3.2536195970        4.7840088142        5.2278948636
  O         3.1169778402        2.9521323150        3.0698464863
  O         3.0523353952        0.7853093451        5.0740773999
  O         5.1210746669        1.0546847856        2.9322194624
  O         5.3062900042        6.5636067464        4.5919118798
  O         4.8355425529        1.2846668265        7.0450286685
  O         4.8649338899        2.9707079475        4.9281920803
  O         6.8104950711        7.7553412485        7.3408955108
  O         6.9420503660        0.7368471282        4.7844248548
  O         3.0276478441        7.1884575717        7.0689424072
  O         3.0046106131        4.7666520895        1.0664865777
  O         5.0699647919        5.5377733083        7.3790762312
  O         5.2498721945        3.5023870093        1.1307044877
  O         5.6480314665        5.2267488982        3.3789820669
  O         5.4248179648        7.3925090296        0.6494306544
  O         7.1615351649        2.6388302373        3.1716409067
  O         6.5631369971        4.3646326263        0.5973028147
      56
 i =        7, E =     -3986.4799031908
 Co         2.0670713522        6.0542047314        1.9031876045
 Co         0.3182393217        4.0097941234        0.1522328519
 Co         2.1339341982        1.9961674614        5.7885116629
 Co         0.1956911647        0.1133039400        4.0177938902
 Co         6.2365397715        6.2858414225        6.0610464994
 Co         4.0829413000        4.0925672507        3.7457776732
 Co         5.9439996153        2.0632024411        1.7825388098
 Co         3.9476317267       -0.0875104805        0.1024433503
 Co         3.1713501631        2.9220182880        1.0669773866
 Co         3.0751300483        0.8276375098        2.9565503727
 Co         4.5871910552        7.1905390229        2.6307224246
 Co         1.0540142921        0.7717486029        1.0072769985
 Co         3.1631443004        6.8144346981        5.1787792184
 Co         3.0880322384        4.8809783397        7.2533245469
 Co         4.8679033719        3.4767936233        6.9452158698
 Co         0.9168214788        4.8746915798        5.0556036871
 Co         6.8188899768        3.0680465251        5.1227410127
 Co         6.4816401436        1.8009353450        7.2523025509
 Co         0.8778763764        7.0187230164        6.6036181212
 Co         4.9826367654        0.9451313243        4.9351518658
 Co         7.5855890214        6.1195389747        1.6314826535
 Co         7.2999566169        5.0991143273        2.5097638632
 Co         1.0532689622        3.1210667526        2.8164913684
 Co         4.8185579567        5.2667787672        1.3816766084
  O         7.0498196587        3.3450351680        7.2248165553
  O         7.1138420188        0.5255874724        1.5775603449
  O         0.4689762527        1.1285452895        6.7970879854
  O         1.3375411323        6.9831531381        0.4426660079
  O         1.0789050861        1.1015799612        3.0100001178
  O         1.1667375787        2.7611527687        0.8534582622
  O         2.7275990406        6.7650151273        3.3802414057
  O         3.0314698721        1.0002801968        1.0099248722
  O         6.2740313587        7.2342343230        3.5912323412
  O         6.9389255060        5.0186717875        4.6868998635
  O         1.3149554369        5.3609364724        3.0372696434
  O         0.7041554610        2.9412910025        5.0379804661
  O         0.9559630907        4.7760113418        7.1942691064
  O         1.1122654236        7.0093602586        4.8855241303
  O         2.8713608834        2.9076202956        7.2162509084
  O         3.1398033272        4.7953365818        5.1826700721
  O         3.0785839259        2.9486851526        3.0661700670
  O         3.0646298103        0.7725195632        5.0703779012
  O         5.1482842085        1.0035784242        2.9764514094
  O         5.2399977122        6.7446851481        4.6259135676
  O         4.8156222570        1.2093878218        6.9969122814
  O         4.8792732005        2.9742167715        4.9282401683
  O         6.8719244464        7.6573635114        7.3111595925
  O         7.0220179941        0.7812743657        4.7974720638
  O         2.9664880880        7.1509253577        7.0394337275
  O         3.0235402174        4.8312802379        1.0409904768
  O         5.1062982422        5.5014843051        7.3589569138
  O         5.2726345529        3.4628910485        1.0906519230
  O         5.5763067909        5.2700232925        3.2987373914
  O         5.4299202460        7.2878519391        0.7239217325
  O         7.1104463901        2.7408399242        3.1371396838
  O         6.6213040803        4.4966690349        0.6912003009
      56
 i =        8, E =     -3918.4234742396
 Co         2.0192155023        5.9862347013        1.9885981910
 Co         0.2226693755        3.9384246231        0.1504485396
 Co         2.1512665596        1.9833078971        5.8153884404
 Co         0.2096884741        0.1724502717        3.9917961848
 Co         6.1822007619        6.2970134337        6.0137154583
 Co         4.0601366937        4.0724183356        3.7433578169
 Co         5.9436179067        2.0197341317        1.8200947297
 Co         3.8486714922       -0.1364138079        0.1604709197
 Co         3.1844105265        2.9520595519        1.0581553567
 Co         3.1545219439        0.8067272891        2.9814152884
 Co         4.7417395053        7.1898096119        2.7082296080
 Co         1.0531260398        0.8094591652        1.0106930126
 Co         3.0528681715        6.8687936453        5.1390241332
 Co         3.1147016858        4.9210909562        7.2062336283
 Co         4.8583763201        3.4556589156        6.9396217283
 Co         0.8851486013        4.8994756567        5.0515610458
 Co         6.8310837425        3.0840324059        5.0462352848
 Co         6.6400822409        1.6459266640        7.2052367272
 Co         0.9054188616        7.0817527661        6.6783364879
 Co         5.0853821085        1.0397064454        4.9225078735
 Co         7.5211762498        6.1954889360        1.6722670454
 Co         7.0999566169        5.1588077160        2.5694602090
 Co         1.0007293486        3.0656299788        2.8869404929
 Co         4.9164493539        5.1584769797        1.3163244034
  O         7.0054181274        3.2299466674        7.1088132661
  O         7.1009738794        0.6114922820        1.4624774721
  O         0.5535673659        1.1082668915        6.8712246832
  O         1.2922753623        7.0194842378        0.4684869167
  O         1.1444862417        1.0953235794        2.9686685734
  O         1.1719070976        2.7191318791        0.9189606497
  O         2.8415045900        6.8109774295        3.3598855742
  O         2.9928347516        1.0245630703        1.0468364682
  O         6.4349715759        7.1611850322        3.5115892425
  O         6.9588947846        5.0130963019        4.7165188068
  O         1.1966337035        5.3056619997        3.0350484388
  O         0.7326750007        2.9655026051        5.0399133225
  O         0.9232211300        4.8272183811        7.2271382282
  O         1.0723154830        6.9812068181        4.9127342306
  O         2.9074760370        2.9543507889        7.2068846720
  O         3.0630189246        4.8418566111        5.1525152711
  O         3.0461034474        2.9463608940        3.0618264899
  O         3.0861699853        0.7827806745        5.0561016573
  O         5.1485222282        0.9650402264        3.0074216136
  O         5.1666290422        6.9019310031        4.6743135141
  O         4.8031951024        1.1476934042        6.9406675212
  O         4.9115673288        2.9627190068        4.9332869384
  O         6.9317253105        7.5382095049        7.2836272916
  O         7.0772674594        0.8371926490        4.8456030894
  O         2.9232396879        7.1234191534        7.0081414343
  O         3.0615594006        4.8786447203        1.0106105998
  O         5.1189851857        5.4537855973        7.3232966733
  O         5.2507992234        3.4106375686        1.0454928675
  O         5.4691485877        5.2970881012        3.2112419633
  O         5.4294950697        7.1848182156        0.8087803335
  O         7.0825757676        2.8076345245        3.0803404162
  O         6.6801010003        4.6454735941        0.7934138793
      56
 i =        9, E =     -3857.9033968898
 Co         1.9734613477        5.9165293582        2.0808841537
 Co         0.1333839720        3.8660719265        0.1495773828
 Co         2.1682286995        1.9715168351        5.8432852839
 Co         0.2246821090        0.2291084874        3.9683082247
 Co         6.1287978107        6.3088403513        5.9703430775
 Co         4.0387390468        4.0447525991        3.7430209441