       7
 i =        1, E =      -597.0381128415
 Co         0.0418996199       -0.0954281636        0.0746546924
 Co        -0.1013164153        1.6967713461        1.6629061351
 Co         1.7799064938        0.1585280795        1.9566572300
 Co         1.7327700241        1.7513023630       -0.0975802231
  O         2.5140642312        2.3459265273        2.2583075231
  H         3.4840989002        2.3191162531        2.2385145527
  H         2.2300664729        3.2777345323        2.4695867147
       7
 i =        2, E =      -597.9351164628
 Co         0.1556837776       -0.2455252844        0.1182741101
 Co        -0.1668728883        1.6005335343        1.4629061351
 Co         1.6363738797        0.3488452147        2.1264060812
 Co         1.6766884845        1.6905470727       -0.1159928641
  O         2.4792920516        2.3986048480        2.2600140613
  H         3.5519015508        2.3143861712        2.1400924740
  H         2.3493818838        3.3455193359        2.5766938510
       7
 i =        3, E =      -598.3934691706
 Co         0.2590799664       -0.3030143831        0.1938980500
 Co        -0.3530777890        1.4222412778        1.2987440126
 Co         1.4363738797        0.3266911942        2.2017048027
 Co         1.6397075799        1.7980825316        0.0215365467
  O         2.5083792443        2.4759815063        2.3580419356
  H         3.6533302771        2.2786424231        1.9799577133
  H         2.5393099833        3.4583301230        2.5164065991
       7
 i =        4, E =      -598.5781827740
 Co         0.2934784089       -0.3890482006        0.3938980500
 Co        -0.4598223834        1.2709876069        1.2810541829
 Co         1.3247774446        0.3078798530        2.1542049824
 Co         1.5599236551        1.8285661115        0.0422323487
  O         2.5433690677        2.5486339506        2.4282931907
  H         3.7319546919        2.2969030300        1.8713937426
  H         2.6934478735        3.5875488608        2.3970424951
       7
 i =        5, E =      -598.6090007997
 Co         0.2481774270       -0.2922177869        0.4677392596
 Co        -0.4731662132        1.2716807951        1.2189592492
 Co         1.1707285459        0.2767271261        2.2185280539
 Co         1.5576734375        1.6285661115       -0.0252684518
  O         2.5967072458        2.5849493751        2.4815615017
  H         3.8156971929        2.3187032987        1.8301495082
  H         2.7691998899        3.6595413891        2.3685316475
       7
 i =        6, E =      -598.6441618429
 Co         0.3833089206       -0.4096976259        0.4740435400
 Co        -0.5170741414        1.2799159190        1.1967017210
 Co         1.1344861468        0.3091158797        2.2060050147
 Co         1.4889217460        1.6233923652        0.0035150640
  O         2.5838634209        2.6003779754        2.5054853237
  H         3.8345545684        2.3346177291        1.8041703120
  H         2.7653957964        3.7141098809        2.3588904952
       7
 i =        7, E =      -598.6619544139
 Co         0.4119684752       -0.3618236263        0.3925432655
 Co        -0.5813880625        1.1936298226        1.2218162081
 Co         1.2346110229        0.3718284481        2.1199311505
 Co         1.4339110159        1.6467924877        0.1060820724
  O         2.5642999994        2.5720240721        2.5282295861
  H         3.8594018200        2.2825536554        1.8106307217
  H         2.7446263040        3.7380294915        2.3643807058
       7
 i =        8, E =      -598.6893476862
 Co         0.3512409217       -0.3670606038        0.4329591672
 Co        -0.5390155932        1.2568387418        1.1809220589
 Co         1.2378140071        0.3914911786        2.0935640556
 Co         1.4103176027        1.5816478119        0.1132785587
  O         2.5807004287        2.5522636008        2.5142673683
  H         3.9114144139        2.2885439477        1.8312307165
  H         2.7158706458        3.7429739356        2.3734276130
       7
 i =        9, E =      -598.7064272284
 Co         0.3655149977       -0.3342111396        0.3330061702
 Co        -0.4914038554        1.3413117980        1.1418455354
 Co         1.1772753661        0.4331042710        2.0953017345
 Co         1.3568193163        1.4649375715        0.1811873971
  O         2.5814852198        2.4964696907        2.5050744058
  H         3.9992148629        2.2872794674        1.8771918697
  H         2.6730849230        3.7712852444        2.3993522342
       7
 i =       10, E =      -598.7013766965
 Co         0.2898522551       -0.3707576518        0.3540880543
 Co        -0.4668323922        1.3600606812        1.1432914888
 Co         1.1732706131        0.4453352946        2.0488646507
 Co         1.4234297972        1.4781613821        0.2550309157
  O         2.5683579044        2.4646287452        2.4696522378
  H         4.0223228417        2.3075430407        1.8762205315
  H         2.6505916771        3.7695488165        2.3822018705
       7
 i =       11, E =      -598.7115228150
 Co         0.2973024494       -0.3648900186        0.3573381284
 Co        -0.4664539248        1.3200841185        1.2013059084
 Co         1.2057904412        0.4410195889        2.0429238161
 Co         1.3616017302        1.4929012233        0.1723340077
  O         2.5700721498        2.4818564351        2.4814041888
  H         4.0132484587        2.3051765266        1.8966325664
  H         2.6797155818        3.7721055439        2.3776272246
       7
 i =       12, E =      -598.7120566474
 Co         0.3597085295       -0.3508094147        0.3269814625
 Co        -0.5325130914        1.3156522475        1.1656297746
 Co         1.1982538589        0.4393949195        2.0689510363
 Co         1.3886871974        1.4613067149        0.1661096541
  O         2.5601688109        2.5024246992        2.5151841463
  H         4.0011610558        2.2951303337        1.8740388733
  H         2.6791416489        3.7836095919        2.4078331171
       7
 i =       13, E =      -598.7177470379
 Co         0.3249425405       -0.3556384535        0.3285851553
 Co        -0.4996439488        1.3281572287        1.1796204614
 Co         1.1896427086        0.4343151405        2.0465552770
 Co         1.3787544086        1.4721522660        0.1795681566
  O         2.5597932773        2.4808164264        2.4980330613
  H         4.0269476179        2.3066250899        1.8876693673
  H         2.6701710918        3.7794464644        2.4017383644
       7
 i =       14, E =      -598.7202141435
 Co         0.3083628716       -0.3635435059        0.3205614565
 Co        -0.4907234762        1.3378999640        1.1821505386
 Co         1.1946832171        0.4356228032        2.0334053944
 Co         1.3739518074        1.4647376823        0.1767658926
  O         2.5532618334        2.4646336372        2.4931728466
  H         4.0512807364        2.3128644700        1.8943791700
  H         2.6693073125        3.7815087009        2.4135260427
       7
 i =       15, E =      -598.7263460000
 Co         0.2719579540       -0.3656320861        0.2851407702
 Co        -0.4834857981        1.3553180918        1.1928968758
 Co         1.1894901433        0.4097995930        1.9897502017
 Co         1.3640132442        1.4531458279        0.1591781223
  O         2.5297674967        2.4192960078        2.4934081571
  H         4.1374394447        2.3474687792        1.8960474989
  H         2.6633159420        3.7886919222        2.4650718553
       7
 i =       16, E =      -598.7303862596
 Co         0.2554333888       -0.3817084899        0.2676720337
 Co        -0.5039597223        1.3634273690        1.1774499638
 Co         1.2126201381        0.4077106123        1.9538211296
 Co         1.3358147491        1.4259406497        0.1327909173
  O         2.5076802098        2.3880908277        2.5103494218
  H         4.2192059532        2.3669817923        1.8804839640
  H         2.6701082487        3.8132541549        2.5314095105
       7
 i =       17, E =      -598.7324298587
 Co         0.2581251788       -0.3797335212        0.2612914573
 Co        -0.5132610060        1.3579012296        1.1682543498
 Co         1.2053439751        0.3901460220        1.9577453915
 Co         1.3357197519        1.4207746329        0.1226096805
  O         2.5021858754        2.3802056518        2.5228261379
  H         4.2468121331        2.3828350115        1.8529989378
  H         2.6770339645        3.8220332570        2.5687636380
       7
 i =       18, E =      -598.7339618026
 Co         0.2646130412       -0.3807541456        0.2656967938
 Co        -0.5235052619        1.3397887878        1.1583062836
 Co         1.2032167679        0.3825719036        1.9678564212
 Co         1.3352236567        1.4128579149        0.1206159849
  O         2.4979175040        2.3800603364        2.5325765598
  H         4.2559373097        2.3934849149        1.8132396678
  H         2.6852787940        3.8351584274        2.6027859354
       7
 i =       19, E =      -598.7353294937
 Co         0.2662061076       -0.3885042675        0.2753369504
 Co        -0.5269563397        1.3160609524        1.1538578538
 Co         1.2039296164        0.3744228760        1.9795000341
 Co         1.3374371778        1.4132870974        0.1200545140
  O         2.4913070828        2.3811885495        2.5346293067
  H         4.2531090549        2.4060387261        1.7652306222
  H         2.6924065610        3.8470398676        2.6389214876
       7
 i =       20, E =      -598.7370452857
 Co         0.2647484198       -0.4037929872        0.2865759778
 Co        -0.5257952181        1.2865162647        1.1511942947
 Co         1.2082424506        0.3678346948        1.9848985788
 Co         1.3327225181        1.4099350885        0.1219296890
  O         2.4776402501        2.3813927621        2.5304650763
  H         4.2505841291        2.4232822878        1.6997911602
  H         2.6920800461        3.8697130988        2.6986160822
       7
 i =       21, E =      -598.7383440920
 Co         0.2572540872       -0.4196659231        0.2832626064
 Co        -0.5191621795        1.2692481653        1.1505391706
 Co         1.2158400205        0.3638087856        1.9815090885
 Co         1.3297440513        1.4068038023        0.1230223648
  O         2.4661395317        2.3793475012        2.5195296986
  H         4.2480233516        2.4185023216        1.6679627462
  H         2.6832245932        3.8869247723        2.7497051176
       7
 i =       22, E =      -598.7396932579
 Co         0.2506557402       -0.4275986687        0.2684297101
 Co        -0.5062281569        1.2702629775        1.1500257327
 Co         1.2226963167        0.3596503517        1.9660071479
 Co         1.3254517121        1.3992310256        0.1248203137
  O         2.4596894852        2.3790018804        2.5042441469
  H         4.2486360972        2.3945259371        1.6710711882
  H         2.6611084922        3.9026991831        2.7968085993
       7
 i =       23, E =      -598.7405510282
 Co         0.2529715475       -0.4315232667        0.2588759350
 Co        -0.4976241361        1.2765594445        1.1468154923
 Co         1.2326131184        0.3554814428        1.9574631572
 Co         1.3299075935        1.3988186807        0.1209519172
  O         2.4585747428        2.3889045053        2.4896956870
  H         4.2312506006        2.3617494773        1.6851498399
  H         2.6462822705        3.9135386031        2.8295606896
       7
 i =       24, E =      -598.7411532177
 Co         0.2591904475       -0.4286149921        0.2464917019
 Co        -0.4941206450        1.2832492208        1.1399785983
 Co         1.2449388832        0.3474566008        1.9408920944
 Co         1.3301808898        1.3935389273        0.1113481285
  O         2.4582513041        2.3968127924        2.4774089217
  H         4.2198667970        2.3321717919        1.6959505059
  H         2.6384201254        3.9268581348        2.8611462558
       7
 i =       25, E =      -598.7414648099
 Co         0.2648131036       -0.4243032331        0.2379862622
 Co        -0.4947622313        1.2891459441        1.1307435631
 Co         1.2542104113        0.3436166586        1.9332433552
 Co         1.3313675648        1.3938721209        0.1028063908
  O         2.4607874678        2.4003448570        2.4708843310
  H         4.2117573120        2.3164396945        1.7002595488
  H         2.6480747509        3.9338770311        2.8684649249
       7
 i =       26, E =      -598.7417312711
 Co         0.2716945192       -0.4195909081        0.2326635480
 Co        -0.4944546375        1.2938007280        1.1234285896
 Co         1.2602471485        0.3415574109        1.9296361022
 Co         1.3336954867        1.3929866576        0.0990899795
  O         2.4660906816        2.3998516650        2.4681523943
  H         4.2080675569        2.3124382040        1.6982593564
  H         2.6687248014        3.9401760182        2.8649562973
       7
 i =       27, E =      -598.7420049625
 Co         0.2778765268       -0.4173341567        0.2286572971
 Co        -0.4911349368        1.2979641805        1.1180587093
 Co         1.2670751893        0.3398694398        1.9272054646
 Co         1.3386742150        1.3925781962        0.0960468276
  O         2.4733336274        2.3974178918        2.4655342798
  H         4.2055819861        2.3160783661        1.6891009058
  H         2.7010506517        3.9505920337        2.8603114599
       7
 i =       28, E =      -598.7422045958
 Co         0.2797429233       -0.4174414476        0.2269485178
 Co        -0.4864882045        1.3006197069        1.1174581342
 Co         1.2716678135        0.3403448135        1.9246924311
 Co         1.3413437964        1.3916716878        0.0949056363
  O         2.4791149947        2.3948124193        2.4640625118
  H         4.2050818975        2.3252093211        1.6773976301
  H         2.7302188370        3.9635343791        2.8582059183
       7
 i =       29, E =      -598.7422934361
 Co         0.2781299084       -0.4176894381        0.2272137316
 Co        -0.4835345162        1.3023903677        1.1206359571
 Co         1.2722972810        0.3429132841        1.9240691053
 Co         1.3422989272        1.3931744692        0.0956073033
  O         2.4817320182        2.3952960320        2.4642122904
  H         4.2033277197        2.3321154679        1.6719690977
  H         2.7429658938        3.9724647034        2.8577860390
       7
 i =       30, E =      -598.7423394339
 Co         0.2761618355       -0.4165037698        0.2274471530
 Co        -0.4827866796        1.3048789972        1.1237823859
 Co         1.2714243689        0.3463321101        1.9236472422
 Co         1.3413718159        1.3949377177        0.0968594956
  O         2.4822844116        2.3974633678        2.4657050612
  H         4.2017520250        2.3354948430        1.6715798132
  H         2.7448458689        3.9789675191        2.8601038329
       7
 i =       31, E =      -598.7423948637
 Co         0.2732617182       -0.4132657850        0.2286824387
 Co        -0.4836643728        1.3097068268        1.1274675119
 Co         1.2689785129        0.3517692358        1.9246271067
 Co         1.3395755755        1.3993078256        0.0988433241
  O         2.4817325553        2.4020202228        2.4692536443
  H         4.1982912652        2.3391723554        1.6729440609
  H         2.7423509114        3.9870887681        2.8650528626
       7
 i =       32, E =      -598.7424600501
 Co         0.2694844172       -0.4070099308        0.2295636228
 Co        -0.4859119592        1.3177239246        1.1303490106
 Co         1.2661145886        0.3582218514        1.9251487281
 Co         1.3364366661        1.4047860082        0.1006903797
  O         2.4795199464        2.4075781705        2.4740381499
  H         4.1936833519        2.3429107752        1.6750865791
  H         2.7357698417        3.9972442160        2.8747529495
       7
 i =       33, E =      -598.7425238473
 Co         0.2663233287       -0.4001686133        0.2310214095
 Co        -0.4887647571        1.3250578476        1.1311690754
 Co         1.2635567844        0.3629029691        1.9265686639
 Co         1.3337614170        1.4101338759        0.1019718199
  O         2.4764931149        2.4115309466        2.4782890579
  H         4.1879160525        2.3458865255        1.6761774352
  H         2.7281164429        4.0033585072        2.8825987758
       7
 i =       34, E =      -598.7425917875
 Co         0.2637064918       -0.3925750679        0.2323858870
 Co        -0.4913710732        1.3309838159        1.1307427838
 Co         1.2623592458        0.3659966626        1.9274632183
 Co         1.3313659644        1.4146436818        0.1026039750
  O         2.4732778007        2.4131929144        2.4816664633
  H         4.1813805971        2.3489508895        1.6752316526
  H         2.7208027607        4.0057167305        2.8872282552
       7
 i =       35, E =      -598.7426542831
 Co         0.2622237089       -0.3863025365        0.2337424196
 Co        -0.4930498752        1.3349204806        1.1301312082
 Co         1.2617467877        0.3684646577        1.9285082622
 Co         1.3301452223        1.4188088062        0.1027287171
  O         2.4710264094        2.4136169175        2.4839634846
  H         4.1745098371        2.3528847732        1.6726248306
  H         2.7153308429        4.0044029430        2.8850997231
       7
 i =       36, E =      -598.7427442394
 Co         0.2603811297       -0.3790239833        0.2329536656
 Co        -0.4937787041        1.3399923046        1.1289761745
 Co         1.2620381355        0.3716049142        1.9272072669
 Co         1.3288041271        1.4231991999        0.1017716874
  O         2.4686121030        2.4131324281        2.4856439463
  H         4.1671689211        2.3595309369        1.6668066238
  H         2.7090859050        4.0026015763        2.8795936703
       7
 i =       37, E =      -598.7429083726
 Co         0.2584024168       -0.3712823111        0.2292680692
 Co        -0.4934284643        1.3455212917        1.1261298956
 Co         1.2628270398        0.3757044056        1.9233095598
 Co         1.3278092300        1.4284676623        0.0987949192
  O         2.4659449934        2.4119604156        2.4863968291
  H         4.1578389823        2.3702872575        1.6542180013
  H         2.7000147408        3.9978278835        2.8647539382
       7
 i =       38, E =      -598.7431724231
 Co         0.2564577068       -0.3663045078        0.2192358913
 Co        -0.4905714958        1.3503243086        1.1203415907
 Co         1.2649830587        0.3787644907        1.9134233997
 Co         1.3274891801        1.4309401899        0.0921044062
  O         2.4637313799        2.4093649250        2.4845264209
  H         4.1506744003        2.3831718110        1.6333240072
  H         2.6900127941        3.9912572594        2.8399913181
       7
 i =       39, E =      -598.7435660132
 Co         0.2560459252       -0.3694172935        0.2031644365
 Co        -0.4846735167        1.3502497719        1.1114780090
 Co         1.2677678523        0.3771434187        1.8987270450
 Co         1.3292007196        1.4259427338        0.0821246721
  O         2.4635551429        2.4056316741        2.4792302884
  H         4.1499414779        2.3914374869        1.6073833104
  H         2.6845240267        3.9833275124        2.8055513877
       7
 i =       40, E =      -598.7445437155
 Co         0.2577567473       -0.3842264388        0.1548052233
 Co        -0.4681908339        1.3444783546        1.0852353049
 Co         1.2792482586        0.3616334418        1.8555687930
 Co         1.3349997696        1.4019444724        0.0531783146
  O         2.4655065524        2.3945816797        2.4589907921
  H         4.1605940315        2.3893750266        1.5526634009
  H         2.6895123602        3.9744473106        2.7387518709
       7
 i =       41, E =      -598.7453288055
 Co         0.2643198480       -0.4192036118        0.0567000027
 Co        -0.4416702221        1.3281927512        1.0179808593
 Co         1.3032693250        0.3209227541        1.7633920764
 Co         1.3470563196        1.3536120638       -0.0210354142
  O         2.4676591288        2.3749952155        2.4097022150
  H         4.1841290702        2.3648769539        1.4434334237
  H         2.7190860650        3.9655402546        2.6104809740
       7
 i =       42, E =      -598.7458788637
 Co         0.2833306218       -0.4512522365       -0.0007265585
 Co        -0.4212600970        1.3027762248        0.9687933215
 Co         1.3231845227        0.2823884891        1.7133197065
 Co         1.3647894506        1.3160841520       -0.0660640238
  O         2.4729833794        2.3574222387        2.3638880302
  H         4.2064490767        2.3166074350        1.3949848430
  H         2.7632945372        3.9564901278        2.5458317509
       7
 i =       43, E =      -598.7467264921
 Co         0.3017851161       -0.4697320417       -0.0111398811
 Co        -0.4150360690        1.2741482700        0.9449620985
 Co         1.3315648456        0.2563526093        1.7056561568
 Co         1.3845581919        1.2995593805       -0.0814613377
  O         2.4763474560        2.3427484475        2.3363619475
  H         4.2307558300        2.2694766876        1.4013337462
  H         2.8104515563        3.9452983866        2.5265235474
       7
 i =       44, E =      -598.7468570496
 Co         0.3046970562       -0.4793038756       -0.0340457215
 Co        -0.4074562776        1.2628227090        0.9219044759
 Co         1.3373654058        0.2404010859        1.6811601428
 Co         1.3934676439        1.2812573661       -0.1045736562
  O         2.4749657308        2.3272524854        2.3174906129
  H         4.2480955397        2.2516916901        1.3814866180
  H         2.8344758853        3.9396097681        2.4891911910
       7
 i =       45, E =      -598.7469257954
 Co         0.2990232349       -0.4708150433       -0.0227790026
 Co        -0.4112162628        1.2726878272        0.9281538361
 Co         1.3316014985        0.2496506490        1.6868094080
 Co         1.3880794963        1.2869022231       -0.0990225610
  O         2.4720977851        2.3306833637        2.3254476669
  H         4.2391747080        2.2580486579        1.3915780868
  H         2.8268072533        3.9472252927        2.4997852889
       7
 i =       46, E =      -598.7469555606
 Co         0.2991124525       -0.4737928791       -0.0208840125
 Co        -0.4114039155        1.2708652519        0.9277075971
 Co         1.3305736836        0.2485117955        1.6870646234
 Co         1.3887023389        1.2861807164       -0.1006417170
  O         2.4717363558        2.3304432733        2.3253737534
  H         4.2354861877        2.2544147739        1.3928372084
  H         2.8262222472        3.9461134969        2.4975181815
       7
 i =       47, E =      -598.7469979731
 Co         0.2985335295       -0.4799314551       -0.0194492911
 Co        -0.4116228479        1.2653252311        0.9277229113
 Co         1.3291117179        0.2442917943        1.6861904201
 Co         1.3887824509        1.2823792777       -0.1024392358
  O         2.4706369748        2.3267028826        2.3260803083
  H         4.2318923540        2.2464545328        1.3967986031
  H         2.8239869589        3.9427005683        2.4966414758
       7
 i =       48, E =      -598.7470463871
 Co         0.2982584706       -0.4861112610       -0.0181734981
 Co        -0.4116224509        1.2591363304        0.9291982569
 Co         1.3277901543        0.2390700964        1.6866704058
 Co         1.3885533999        1.2774838616       -0.1016936030
  O         2.4701960273        2.3207087247        2.3288957794
  H         4.2262791856        2.2373548301        1.4046013517
  H         2.8215025651        3.9378699446        2.4984726075
       7
 i =       49, E =      -598.7471088294
 Co         0.2982307634       -0.4920987943       -0.0150870755
 Co        -0.4118887921        1.2522248079        0.9332052399
 Co         1.3269547710        0.2328849101        1.6903648989
 Co         1.3880248268        1.2717030867       -0.0971936159
  O         2.4705446857        2.3118561361        2.3351493526
  H         4.2194576450        2.2291042567        1.4181058777
  H         2.8199783013        3.9308227575        2.5052073329
       7
 i =       50, E =      -598.7471879353
 Co         0.3006197913       -0.5014313183       -0.0128387208
 Co        -0.4102531454        1.2412021218        0.9359892631
 Co         1.3289573117        0.2216830837        1.6945733560
 Co         1.3889767271        1.2611659983       -0.0919908568
  O         2.4721716904        2.2972897313        2.3406897375
  H         4.2130219168        2.2182065457        1.4351652570
  H         2.8245107543        3.9185807669        2.5125581334
       7
 i =       51, E =      -598.7472914568
 Co         0.3042058778       -0.5201019026       -0.0064751598
 Co        -0.4076216113        1.2182924872        0.9415611789
 Co         1.3332421940        0.2010361863        1.7032097788
 Co         1.3907428469        1.2430797275       -0.0832735538
  O         2.4740185996        2.2718447158        2.3480442491
  H         4.2037771426        2.2019258689        1.4637750639
  H         2.8327190107        3.8930929070        2.5247191765
       7
 i =       52, E =      -598.7474735526
 Co         0.3185270525       -0.5784451845        0.0052208418
 Co        -0.3991718209        1.1522148508        0.9482252098
 Co         1.3455610089        0.1431042183        1.7168766806
 Co         1.3981167114        1.1875385588       -0.0694708705
  O         2.4794127761        2.2119435897        2.3547721066
  H         4.1856379566        2.1517297229        1.5251209188
  H         2.8573784783        3.8298330445        2.5481639385
       7
 i =       53, E =      -598.7475720570
 Co         0.3162493787       -0.5761388406        0.0029481810
 Co        -0.3991870098        1.1592681402        0.9468072142
 Co         1.3435429263        0.1474312019        1.7117609031
 Co         1.3979524885        1.1900082537       -0.0746712818
  O         2.4776127681        2.2189351248        2.3506770116
  H         4.1844537927        2.1569289092        1.5184957897
  H         2.8531939819        3.8347927295        2.5403361516
       7
 i =       54, E =      -598.7477343693
 Co         0.3158430298       -0.6095055634        0.0051510324
 Co        -0.3957154057        1.1336297390        0.9467097057
 Co         1.3430086139        0.1198690780        1.7070452887
 Co         1.3995731658        1.1592830148       -0.0807545102
  O         2.4735637625        2.1948807132        2.3457673906
  H         4.1670383836        2.1358148237        1.5436317388
  H         2.8560112903        3.8043607775        2.5324401658
       7
 i =       55, E =      -598.7477363639
 Co         0.3210323261       -0.6769997539        0.0059471710
 Co        -0.3887511373        1.0753857131        0.9418038053
 Co         1.3472107906        0.0590603938        1.6995803312
 Co         1.4037278689        1.0939391554       -0.0882852373
  O         2.4701049737        2.1417219206        2.3374491533
  H         4.1399851542        2.0830675373        1.5945561884
  H         2.8723227917        3.7440816586        2.5268935615
       7
 i =       56, E =      -598.7477150401
 Co         0.3246982474       -0.7059593606        0.0097356016
 Co        -0.3872621452        1.0430631417        0.9451050501
 Co         1.3497978860        0.0299950897        1.7041593566
 Co         1.4049580633        1.0665679073       -0.0832070864
  O         2.4703828338        2.1130079492        2.3410050638
  H         4.1267866420        2.0553418361        1.6267952736
  H         2.8802915778        3.7132645259        2.5351082116
       7
 i =       57, E =      -598.7477550929
 Co         0.3229890638       -0.6768475253        0.0110164049
 Co        -0.3949336831        1.0579008012        0.9503436321
 Co         1.3470101935        0.0513923553        1.7156898830
 Co         1.3999773021        1.0950215320       -0.0711233446
  O         2.4723854737        2.1289845802        2.3517614412
  H         4.1365461020        2.0673124095        1.6179501296
  H         2.8755884692        3.7345530444        2.5499853101
       7
 i =       58, E =      -598.7478354070
 Co         0.3212784738       -0.6771606879        0.0055851473
 Co        -0.3937724432        1.0656627688        0.9438488406
 Co         1.3451511675        0.0536436535        1.7064617062
 Co         1.4006719294        1.0930824851       -0.0804299935
  O         2.4700793802        2.1338300569        2.3441710401
  H         4.1391048900        2.0715699429        1.6069050542
  H         2.8756056609        3.7399027124        2.5367270345
       7
 i =       59, E =      -598.7478454405
 Co         0.3192651168       -0.6769668079        0.0014639415
 Co        -0.3945690824        1.0681760786        0.9404409568
 Co         1.3438265091        0.0536877862        1.7020086727
 Co         1.3996993858        1.0923041331       -0.0849039995
  O         2.4684465864        2.1357130071        2.3408487915
  H         4.1386683691        2.0715039224        1.6023723930
  H         2.8756068946        3.7422498568        2.5307287225
       7
 i =       60, E =      -598.7478537020
 Co         0.3167709532       -0.6802862552       -0.0018249433
 Co        -0.3967011240        1.0658886066        0.9381708072
 Co         1.3415339274        0.0499647297        1.6989584987