       5
 i =        1, E =      -178.5000119453
  Co        1.6050763600        2.7800738000        2.3741320600
  H         0.0008230616        1.8505897907        0.4463467846
  O         0.0082914261        1.7676085783        1.4128723748
  H          1.61644896    0.80210229    5.83814885
  O          1.60886725    0.88516163    4.87159762
       5
 i =        1, E =      -178.5000119453
  Co        1.6050763600        2.7800738000        2.3741320600
  H         0.0008230616        1.8505897907        0.4463467846
  O         0.0082914261        1.7676085783        1.4128723748
  H          1.61509508    0.81693431    5.66555042
  O          1.60751338    0.89999365    4.69899918
       5
 i =        1, E =      -178.5000119453
  Co        1.6050763600        2.7800738000        2.3741320600
  H         0.0008230616        1.8505897907        0.4463467846
  O         0.0082914261        1.7676085783        1.4128723748
  H          1.61374120    0.83176634    5.49295198
  O          1.60615950    0.91482568    4.52640075
       5
 i =        1, E =      -178.5000119453
  Co        1.6050763600        2.7800738000        2.3741320600
  H         0.0008230616        1.8505897907        0.4463467846
  O         0.0082914261        1.7676085783        1.4128723748
  H          1.61238733    0.84659836    5.32035355
  O          1.60480562    0.92965771    4.35380231
       5
 i =        1, E =      -178.5000119453
  Co        1.6050763600        2.7800738000        2.3741320600
  H         0.0008230616        1.8505897907        0.4463467846
  O         0.0082914261        1.7676085783        1.4128723748
  H          1.61103345    0.86143039    5.14775511
  O          1.60345175    0.94448973    4.18120388
       5
 i =        1, E =      -178.5000119453
  Co        1.6050763600        2.7800738000        2.3741320600
  H         0.0008230616        1.8505897907        0.4463467846
  O         0.0082914261        1.7676085783        1.4128723748
  H          1.60967958    0.87626241    4.97515668
  O          1.60209787    0.95932176    4.00860544
       5
 i =        1, E =      -178.5000119453
  Co        1.6050763600        2.7800738000        2.3741320600
  H         0.0008230616        1.8505897907        0.4463467846
  O         0.0082914261        1.7676085783        1.4128723748
  H          1.60832570    0.89109444    4.80255824
  O          1.60074400    0.97415378    3.83600701
       5
 i =        1, E =      -178.5000119453
  Co        1.6050763600        2.7800738000        2.3741320600
  H         0.0008230616        1.8505897907        0.4463467846
  O         0.0082914261        1.7676085783        1.4128723748
  H          1.60697183    0.90592646    4.62995981
  O          1.59939012    0.98898581    3.66340858
       5
 i =        1, E =      -178.5000119453
  Co        1.6050763600        2.7800738000        2.3741320600
  H         0.0008230616        1.8505897907        0.4463467846
  O         0.0082914261        1.7676085783        1.4128723748
  H          1.60561795    0.92075849    4.45736137
  O          1.59803625    1.00381783    3.49081014
       5
 i =        1, E =      -178.5000119453
  Co        1.6050763600        2.7800738000        2.3741320600
  H         0.0008230616        1.8505897907        0.4463467846
  O         0.0082914261        1.7676085783        1.4128723748
  H          1.60426407    0.93559052    4.28476294
  O          1.59668237    1.01864986    3.31821171
       5
 i =        1, E =      -178.5000119453
  Co        1.6050763600        2.7800738000        2.3741320600
  H         0.0008230616        1.8505897907        0.4463467846
  O         0.0082914261        1.7676085783        1.4128723748
  H          1.60291020    0.95042254    4.11216450
  O          1.59532850    1.03348188    3.14561327
       5
 i =        1, E =      -178.5000119453
  Co        1.6050763600        2.7800738000        2.3741320600
  H         0.0008230616        1.8505897907        0.4463467846
  O         0.0082914261        1.7676085783        1.4128723748
  H          1.60155632    0.96525457    3.93956607
  O          1.59397462    1.04831391    2.97301484
       5
 i =        1, E =      -178.5000119453
  Co        1.6050763600        2.7800738000        2.3741320600
  H         0.0008230616        1.8505897907        0.4463467846
  O         0.0082914261        1.7676085783        1.4128723748
  H          1.60020245    0.98008659    3.76696764
  O          1.59262074    1.06314593    2.80041640
       5
 i =        1, E =      -178.5000119453
  Co        1.6050763600        2.7800738000        2.3741320600
  H         0.0008230616        1.8505897907        0.4463467846
  O         0.0082914261        1.7676085783        1.4128723748
  H          1.59884857    0.99491862    3.59436920
  O          1.59126687    1.07797796    2.62781797
       5
 i =        1, E =      -178.5000119453
  Co        1.6050763600        2.7800738000        2.3741320600
  H         0.0008230616        1.8505897907        0.4463467846
  O         0.0082914261        1.7676085783        1.4128723748
  H          1.59749470    1.00975064    3.42177077
  O          1.58991299    1.09280998    2.45521953