       5
 i =        1, E =      -178.481689915221182
 Co          1.60507636    2.78007380    2.37413206
 H          -0.00000002    1.85338254    0.35994216
 O          -0.00000002    1.85338254    1.33280213
 H           1.60507637    0.92669126    2.44260203
 O           1.60507637    0.92669126    3.41546200
       5
 i =        1, E =      -178.486516509578166
 Co          1.60507636    2.78007380    2.37413206
 H          -0.00000002    1.85338254    0.35994216
 O          -0.00000002    1.85338254    1.33280213
 H           1.60507637    -0.04616871    3.41546200
 O           1.60507637    0.92669126    3.41546200
       5
 i =        1, E =      -178.406210499219981
 Co          1.60507636    2.78007380    2.37413206
 H          -0.00000002    1.85338254    0.35994216
 O          -0.00000002    1.85338254    1.33280213
 H           1.60507637    1.89955123    3.41546200
 O           1.60507637    0.92669126    3.41546200
       5		
 i =        1, E =      -178.505011345134818
 Co          1.60507636    2.78007380    2.37413206
 H          -0.00000002    1.85338254    0.35994216
 O          -0.00000002    1.85338254    1.33280213
 H           0.63221640    0.92669126    3.41546200
 O           1.60507637    0.92669126    3.41546200
       5
 i =        1, E =      -178.483570182660458
 Co          1.60507636    2.78007380    2.37413206
 H          -0.00000002    1.85338254    0.35994216
 O          -0.00000002    1.85338254    1.33280213
 H           2.57793634    0.92669126    3.41546200
 O           1.60507637    0.92669126    3.41546200
       5
 i =        1, E =      -178.487357639348090
 Co          1.60507636    2.78007380    2.37413206
 H          -0.00000002    1.85338254    0.35994216
 O          -0.00000002    1.85338254    1.33280213
 H           1.60507637    1.61458574    4.10335648
 O           1.60507637    0.92669126    3.41546200
       5
 i =        1, E =      -178.495517211817457
 Co          1.60507636    2.78007380    2.37413206
 H          -0.00000002    1.85338254    0.35994216
 O          -0.00000002    1.85338254    1.33280213
 H           2.29297085    0.23879678    3.41546200
 O           1.60507637    0.92669126    3.41546200
       5
 i =        1, E =      -178.463473050635343
 Co          1.60507636    2.78007380    2.37413206
 H          -0.00000002    1.85338254    0.35994216
 O          -0.00000002    1.85338254    1.33280213
 H           2.29297085    1.61458574    3.41546200
 O           1.60507637    0.92669126    3.41546200
       5
 i =        1, E =      -178.501436095583756
 Co          1.60507636    2.78007380    2.37413206
 H          -0.00000002    1.85338254    0.35994216
 O          -0.00000002    1.85338254    1.33280213
 H           1.60507637    0.23879678    2.72756752
 O           1.60507637    0.92669126    3.41546200
       5
 i =        1, E =      -178.490586295975334
 Co          1.60507636    2.78007380    2.37413206
 H          -0.00000002    1.85338254    0.35994216
 O          -0.00000002    1.85338254    1.33280213
 H           0.91718189     0.92669126    2.72756752
 O           1.60507637    0.92669126    3.41546200
