       2
 i =        1, E =      -160.025481222707100
  Co          0.00000000    1.85008400    5.12507416
  O          0.00000000    1.85008400    4.17051137
       2
 i =        1, E =      -161.062895992229045
  Co          0.00000000    1.85008400    5.12507416
  O          0.00000000    1.85008400    3.89777914
       2
 i =        1, E =      -161.271897820101117
  Co          0.00000000    1.85008400    5.12507416
  O          0.00000000    1.85008400    3.62504692
       2
 i =        1, E =      -161.265368912059870
  Co          0.00000000    1.85008400    5.12507416
  O          0.00000000    1.85008400    3.35231469
       2
 i =        1, E =      -161.238349791408609
  Co          0.00000000    1.85008400    5.12507416
  O          0.00000000    1.85008400    3.07958247
       2
 i =        1, E =      -161.20464911164927
  Co          0.00000000    1.85008400    5.12507416
  O          0.00000000    1.85008400    2.80685024
       2
 i =        1, E =      -161.181135743752748
  Co          0.00000000    1.85008400    5.12507416
  O          0.00000000    1.85008400    2.53411802
       2
 i =        1, E =      -161.163891184670717
  Co          0.00000000    1.85008400    5.12507416
  O          0.00000000    1.85008400    2.26138579
       2
 i =        1, E =      -161.152982687405540
  Co          0.00000000    1.85008400    5.12507416
  O          0.00000000    1.85008400    1.98865356
       2
 i =        1, E =      -161.106434502707486
  Co          0.00000000    1.85008400    5.12507416
  O          0.00000000    1.85008400    1.71592134
       2
 i =        1, E =      -161.104662875539077
  Co          0.00000000    1.85008400    5.12507416
  O          0.00000000    1.85008400    1.17045689
       2
 i =        1, E =      -161.097536444169378
  Co          0.00000000    1.85008400    5.12507416
  O          0.00000000    1.85008400    0.62499244
