      14
 i =        1, E =       -89.4178052254
  C        -2.3559791152       -0.3145742693       -0.0412180949
  O        -1.1091240656       -0.4532305469       -0.0298402874
  O        -2.8370966375        1.0190295757       -0.0015547984
  H        -2.2715150819        1.4486080918       -0.6759101726
  C        -3.0918779847       -1.5447005773        0.4426069248
  N        -3.7787163709       -2.2314506862       -0.6088208934
  H        -3.3609011896       -3.1515417738       -0.8618899915
  H        -3.9888211868       -1.8336977119       -1.5562127807
  O        -0.6040620460       -2.6259724006       -1.1765177735
  H        -0.4897205035       -1.7410589516       -0.6968144650
  H        -1.5310575495       -2.3308723019       -1.2782851442
  O        -5.1196303671        0.1179763363       -0.7058206764
  H        -4.6153617973       -0.6220089664       -1.0716927310
  H        -4.3239938631        0.6389453748       -0.4204625831
      14
 i =        2, E =       -89.4524706852
  C        -2.3235874828       -0.2343870034        0.1587819051
  O        -1.1372875183       -0.3902922442       -0.0450810223
  O        -2.8592687093        1.0344388497       -0.0155457668
  H        -2.2257886834        1.4833254171       -0.6321250195
  C        -3.0329053768       -1.5258590560        0.3311973427
  N        -3.6709591563       -2.2437905215       -0.6386306949
  H        -3.3980469640       -3.3196128945       -0.7429158888
  H        -3.8986146306       -1.8797868330       -1.6075915909
  O        -0.5865371642       -2.6756278175       -1.2156154167
  H        -0.4694517189       -1.8072559571       -0.6843026621
  H        -1.5123682478       -2.4206252870       -1.3543667728
  O        -5.2237802924        0.1875092715       -0.6989629673
  H        -4.7396635772       -0.5499143214       -1.0996364445
  H        -4.4034525912        0.7069593986       -0.4341716142
      14
 i =        3, E =       -89.4763754052
  C        -2.3353361649       -0.2524649761        0.0832600817
  O        -1.1188851101       -0.3644271783       -0.0246765029
  O        -2.8647273387        1.0211726581        0.0319633851
  H        -2.2086530041        1.4995214898       -0.5472277040
  C        -3.0069934686       -1.5075203209        0.2970198254
  N        -3.5622392301       -2.2355486589       -0.6388847588
  H        -3.3989789099       -3.3624302093       -0.6517839054
  H        -3.8079695802       -1.8998203226       -1.6095225361
  O        -0.5996488120       -2.6458179071       -1.2346777290
  H        -0.3695075811       -1.8585545299       -0.6593224262
  H        -1.5321418563       -2.5399266350       -1.4608981298
  O        -5.2653071783        0.2407282220       -0.7150699827
  H        -4.8731567110       -0.5363844731       -1.1373795034
  H        -4.4998706608        0.7981662973       -0.4207552751
      14
 i =        4, E =       -89.4908539034
  C        -2.3242894832       -0.2677676347        0.0528675373
  O        -1.0824283198       -0.3448163841       -0.0208694178
  O        -2.8895126225        0.9950056582        0.0490765440
  H        -2.2040336764        1.5344020761       -0.4459821913
  C        -3.0079446598       -1.4901648062        0.2492318442
  N        -3.5468371361       -2.2827250579       -0.6191000954
  H        -3.3565104361       -3.2871549132       -0.6066996634
  H        -3.6941466898       -1.9224278603       -1.5680184637
  O        -0.5619937296       -2.6914515084       -1.2577951090
  H        -0.3445397182       -1.9221076901       -0.6855766581
  H        -1.4917389124       -2.6011806577       -1.5205376201
  O        -5.3493929376        0.2938535349       -0.7549402867
  H        -4.9817066973       -0.5061492724       -1.1520659121
  H        -4.5927337715        0.8303361919       -0.4333388402
      14
 i =        5, E =       -89.5079303780
  C        -2.2984976562       -0.2648503445        0.0497623235
  O        -1.0400280909       -0.3043227539       -0.0340810839
  O        -2.9415685751        0.9621977154        0.0829420450
  H        -2.2093951306        1.5859403886       -0.2768290662
  C        -2.9603494231       -1.4524948066        0.2649183760
  N        -3.4089768535       -2.2405784126       -0.6343106576
  H        -3.3893628422       -3.2920873806       -0.4593187921
  H        -3.5458074757       -1.9675460638       -1.6168918735
  O        -0.4852288417       -2.7895722137       -1.3010501220
  H        -0.3397046600       -2.0211460913       -0.7333092857
  H        -1.4015699263       -2.6768229033       -1.6048778999
  O        -5.5187043610        0.3842941341       -0.7933044763
  H        -5.1564482570       -0.4285304089       -1.1678132468
  H        -4.7295750036        0.8606781498       -0.4669479301
      14
 i =        6, E =       -89.5195477558
  C        -2.2705295845       -0.2186148040        0.0798710035
  O        -1.0289517479       -0.2944839583       -0.0774072925
  O        -2.9488207021        0.9852266342        0.1576104740
  H        -2.2629508549        1.6231372094       -0.1538921415
  C        -2.8987791512       -1.4338604161        0.3134833080
  N        -3.3144848785       -2.2347983226       -0.6205993678
  H        -3.4300861199       -3.2506453176       -0.3849194862
  H        -3.3902315677       -2.0507364718       -1.6555897933
  O        -0.3966869715       -2.8874899598       -1.3729173786
  H        -0.3345846078       -2.1181222870       -0.7730271321
  H        -1.3002192191       -2.7522479947       -1.6900538121
  O        -5.6568609824        0.4779097889       -0.8446807265
  H        -5.3312844150       -0.3751111168       -1.1834993511
  H        -4.8415842090        0.8914585639       -0.4890266724
      14
 i =        7, E =       -89.5246728025
  C        -2.2461599615       -0.2251923098        0.0816566324
  O        -1.0109229006       -0.2614670254       -0.1307582507
  O        -2.9358990518        0.9618029173        0.2027282783
  H        -2.2991009870        1.6823909870       -0.0341567978
  C        -2.8938015393       -1.4405199938        0.3462129419
  N        -3.2680370344       -2.2643025124       -0.6143808794
  H        -3.4555900093       -3.2238656561       -0.3439163488
  H        -3.2669243746       -2.0722071840       -1.6254832492
  O        -0.3368210197       -2.9467845287       -1.4144679739
  H        -0.3122177203       -2.1825340211       -0.7957906497
  H        -1.2279431665       -2.8338119896       -1.7884272110
  O        -5.7676158148        0.5459203048       -0.8535120721
  H        -5.4747439719       -0.3241304711       -1.1915235759
  H        -4.9249456039        0.9156112772       -0.5041831663
      14
 i =        8, E =       -89.5276043909
  C        -2.2131875835       -0.2027159856        0.0663162442
  O        -0.9904394553       -0.2207154139       -0.1705554649
  O        -2.9343374241        0.9600520192        0.2420568836
  H        -2.3173467871        1.7026180595        0.0544019111
  C        -2.8603940251       -1.4415464462        0.3521670516
  N        -3.2231327116       -2.2741289388       -0.5862027071
  H        -3.5196614189       -3.2235456682       -0.3114557128
  H        -3.1590021409       -2.0899836093       -1.5909584758
  O        -0.2837294333       -2.9976855678       -1.4233766707
  H        -0.2807209591       -2.2273349297       -0.8227825976
  H        -1.1555649887       -2.9129808323       -1.8779967170
  O        -5.8453682260        0.6012621006       -0.8565172060
  H        -5.6017539950       -0.2826629035       -1.2023689107
  H        -5.0068461411        0.9538202384       -0.5075181171
      14
 i =        9, E =       -89.5287038539
  C        -2.1916260472       -0.2082186302        0.0552470363
  O        -0.9772784170       -0.2185257295       -0.1800125638
  O        -2.9202254445        0.9488638051        0.2451761362
  H        -2.3164608504        1.6861666123        0.0570236019
  C        -2.8757935333       -1.4287187875        0.3695858645
  N        -3.2423372148       -2.2679799279       -0.5566392637
  H        -3.5461508522       -3.2020813550       -0.3368579569
  H        -3.1669726667       -2.0919518641       -1.5703949145
  O        -0.2734455777       -2.9931617852       -1.4167762981
  H        -0.2688138441       -2.2146505450       -0.8340150802
  H        -1.1312176487       -2.9233418778       -1.8733057864
  O        -5.8419136760        0.5958195100       -0.8451355461
  H        -5.6037006752       -0.2760000438       -1.1959516194
  H        -5.0067884879        0.9486851323       -0.4996019402
      14
 i =       10, E =       -89.5295426499
  C        -2.1851588173       -0.2206070040        0.0555881148
  O        -0.9736626025       -0.2253758427       -0.1762895829
  O        -2.9126399317        0.9342174619        0.2355099700
  H        -2.3045888371        1.6908051922        0.0737533882
  C        -2.8908381444       -1.4265423816        0.3855744315
  N        -3.2403212494       -2.2537447438       -0.5551038575
  H        -3.5735469433       -3.2001265448       -0.3281151833
  H        -3.1660628934       -2.0795042173       -1.5641033851
  O        -0.2499109194       -2.9983753048       -1.4200196707
  H        -0.2613975521       -2.2079380454       -0.8439064331
  H        -1.0971138268       -2.9382258621       -1.8725710482
  O        -5.8535016608        0.5990194778       -0.8394873093
  H        -5.6195770767       -0.2664041072       -1.1918634023
  H        -5.0108422912        0.9404843481       -0.4915457784
      14
 i =       11, E =       -89.5303935157
  C        -2.1940633101       -0.2295202319        0.0678307251
  O        -0.9825544061       -0.2432650830       -0.1594510826
  O        -2.9114329223        0.9323951806        0.2286899794
  H        -2.2907209261        1.6749314171        0.0663094305
  C        -2.9000815560       -1.4402429000        0.3911361797
  N        -3.2675043485       -2.2433988426       -0.5600195973
  H        -3.5853328333       -3.1911234814       -0.3225437547
  H        -3.1853614078       -2.0593698275       -1.5644941105
  O        -0.2385641315       -2.9905154711       -1.3910026785
  H        -0.2510173295       -2.1798940726       -0.8476669554
  H        -1.0771063487       -2.9397443208       -1.8747162805
  O        -5.8402702006        0.5899029938       -0.8206155764
  H        -5.6147521127       -0.2731715479       -1.1880892944
  H        -4.9928311723        0.9285831528       -0.4766349585
      14
 i =       12, E =       -89.5307639507
  C        -2.1864199657       -0.2306974920        0.0805542124
  O        -0.9741292784       -0.2338128638       -0.1712185536
  O        -2.9201462089        0.9267986969        0.2451476555
  H        -2.2852281226        1.6623665414        0.1040876844
  C        -2.8992064607       -1.4380372218        0.4024893369
  N        -3.2739479248       -2.2412333790       -0.5508408730
  H        -3.6135962596       -3.1753386869       -0.3087248162
  H        -3.1627288435       -2.0597373644       -1.5582128743
  O        -0.2048360517       -2.9970781265       -1.3883266381
  H        -0.2342606893       -2.1713238399       -0.8627647120
  H        -1.0299293533       -2.9704223910       -1.9098004188
  O        -5.8656628552        0.6008246239       -0.8122113580
  H        -5.6616796109       -0.2691972886       -1.1895498059
  H        -5.0129857767        0.9242265562       -0.4647952099
      14
 i =       13, E =       -89.5313615947
  C        -2.1897208500       -0.2372593462        0.0893432417
  O        -0.9770650855       -0.2423003599       -0.1644926633
  O        -2.9200480840        0.9239998924        0.2468839318
  H        -2.2766699778        1.6471285016        0.1093344275
  C        -2.9018786532       -1.4414660717        0.4104676051
  N        -3.2886537823       -2.2396503520       -0.5454472583
  H        -3.6388177582       -3.1729596981       -0.3169961525
  H        -3.1773250187       -2.0484847212       -1.5444905818
  O        -0.1844511961       -2.9853745277       -1.3903620357
  H        -0.2259938464       -2.1469937408       -0.8772603615
  H        -0.9986644201       -2.9764915392       -1.9136947021
  O        -5.8580938759        0.5985479586       -0.8113686297
  H        -5.6675961352       -0.2769496123       -1.1855958774
  H        -5.0066544462        0.9082325980       -0.4494052333
      14
 i =       14, E =       -89.5308560451
  C        -2.1937216672       -0.2795274448        0.1277085265
  O        -0.9821576381       -0.2723571792       -0.1458285469
  O        -2.9133375879        0.8910085454        0.2540065855
  H        -2.2364908824        1.5966261092        0.1766931125
  C        -2.9103001617       -1.4659303742        0.4636507214
  N        -3.3602106126       -2.2238983143       -0.5041193087
  H        -3.7869850527       -3.1379391631       -0.3329797113
  H        -3.2123838334       -2.0109385791       -1.4865801166
  O        -0.0468522699       -2.9473687451       -1.3857099593
  H        -0.1630801902       -2.0360140629       -0.9634791898
  H        -0.7986644201       -3.0407645403       -1.9780747483
  O        -5.8527166769        0.6086484470       -0.8181939366
  H        -5.7362293786       -0.2954908384       -1.1633566507
  H        -5.0009588434        0.8297265296       -0.3750399923
      14
 i =       15, E =       -89.5321566328
  C        -2.1910945624       -0.2661960927        0.1065597848
  O        -0.9794802806       -0.2655424361       -0.1532936770
  O        -2.9143210057        0.9000278552        0.2459463268
  H        -2.2600466253        1.6242277315        0.1461840347
  C        -2.9064557485       -1.4584668308        0.4420419289
  N        -3.3303270720       -2.2296102754       -0.5200657163
  H        -3.7258036585       -3.1504533179       -0.3231990474
  H        -3.2043614544       -2.0316322146       -1.5160127733
  O        -0.1093637497       -2.9548676310       -1.3876845645
  H        -0.1796257086       -2.0862476632       -0.9348028988
  H        -0.8834816314       -3.0063417011       -1.9564774733
  O        -5.8512200417        0.6047565038       -0.8265877665
  H        -5.6964236094       -0.2861832073       -1.1661904539
  H        -5.0049814447        0.8572747209       -0.4105080345
      14
 i =       16, E =       -89.5325034499
  C        -2.1846854549       -0.2686152044        0.1046646292
  O        -0.9748648836       -0.2616927964       -0.1577545165
  O        -2.9122224833        0.8942664719        0.2552822650
  H        -2.2721820072        1.6199456874        0.1542251845
  C        -2.9092407402       -1.4586098713        0.4431137910
  N        -3.3279719246       -2.2312116302       -0.5193777113
  H        -3.7333373625       -3.1482864224       -0.3105922591
  H        -3.2035950937       -2.0323374313       -1.5127219932
  O        -0.0955302571       -2.9623971310       -1.3840011217
  H        -0.1775040150       -2.0870074567       -0.9472129757
  H        -0.8605267753       -3.0110982189       -1.9750882916
  O        -5.8547421368        0.6146004871       -0.8254417118
  H        -5.7144115216       -0.2838072074       -1.1627328003
  H        -5.0104832157        0.8589505579       -0.4078382247
      14
 i =       17, E =       -89.5325629493
  C        -2.1717738388       -0.2770366942        0.1040921315
  O        -0.9670789194       -0.2557456425       -0.1657854050
  O        -2.9214122817        0.8698378772        0.2569520903
  H        -2.2899128956        1.6163427406        0.1903163746
  C        -2.9062632059       -1.4683427279        0.4477376873
  N        -3.3376231076       -2.2359828194       -0.5062212057
  H        -3.7695239746       -3.1316435551       -0.2760983182
  H        -3.2121428374       -2.0404607290       -1.5021456861
  O        -0.0389546909       -2.9740897964       -1.3846471706
  H        -0.1629824694       -2.0782773189       -0.9935154724
  H        -0.7690695735       -3.0282627950       -2.0326988243
  O        -5.8621550072        0.6518581004       -0.8324343296
  H        -5.7699119554       -0.2755433114       -1.1437802473
  H        -5.0242385028        0.8511670794       -0.3876211234
      14
 i =       18, E =       -89.5331184745
  C        -2.1780372296       -0.2743669094        0.1033550871
  O        -0.9714688977       -0.2505255272       -0.1663651425
  O        -2.9192207364        0.8777060787        0.2507161705
  H        -2.2887207807        1.6166926187        0.1718112593
  C        -2.9033087926       -1.4699661978        0.4441638308
  N        -3.3434709785       -2.2374924879       -0.5069666004
  H        -3.7678103485       -3.1383670921       -0.2827382369
  H        -3.2294057125       -2.0425939677       -1.5062499977
  O        -0.0443133146       -2.9611356182       -1.3884996731
  H        -0.1636625282       -2.0730476531       -0.9853989052
  H        -0.7776687287       -3.0208706163       -2.0243649004
  O        -5.8537494720        0.6392405862       -0.8280525153
  H        -5.7436315510       -0.2741980283       -1.1380711910
  H        -5.0098200768        0.8380046657       -0.3860698268
      14
 i =       19, E =       -89.5333918061
  C        -2.1829034995       -0.2643544333        0.0939191194
  O        -0.9741163324       -0.2419432875       -0.1638247222
  O        -2.9233031386        0.8891926795        0.2433873206
  H        -2.2910396548        1.6320794315        0.1568285716
  C        -2.8957137714       -1.4627520321        0.4335499708
  N        -3.3344391635       -2.2446704957       -0.5105658949
  H        -3.7491012226       -3.1503285897       -0.2827595207
  H        -3.2466242232       -2.0575836793       -1.5167139552
  O        -0.0606308903       -2.9587947212       -1.3924754857
  H        -0.1719397861       -2.0845153841       -0.9718861835
  H        -0.7978070169       -3.0091692048       -2.0203587555
  O        -5.8415008997        0.6371705675       -0.8232655371
  H        -5.7296071870       -0.2739946080       -1.1357208362
  H        -4.9974801371        0.8431770571       -0.3875572437
      14
 i =       20, E =       -89.5334401846
  C        -2.1834356487       -0.2565979859        0.0853974998
  O        -0.9745390883       -0.2388768592       -0.1650691075
  O        -2.9253285406        0.8964282924        0.2502576898
  H        -2.2994226539        1.6410470597        0.1564882341
  C        -2.8854257462       -1.4595522634        0.4222810696
  N        -3.3248585041       -2.2519260992       -0.5118329816
  H        -3.7385986451       -3.1565221715       -0.2678149433
  H        -3.2551365301       -2.0703793721       -1.5208891430
  O        -0.0670707055       -2.9686346377       -1.3972822720
  H        -0.1764814975       -2.1016164860       -0.9691856355
  H        -0.7978177168       -3.0091210832       -2.0347920046
  O        -5.8494622877        0.6534861040       -0.8268719214
  H        -5.7403414954       -0.2610877418       -1.1281863626
  H        -4.9942265370        0.8436789383       -0.3863578009
      14
 i =       21, E =       -89.5337054869
  C        -2.1826611503       -0.2598815944        0.0845842964
  O        -0.9735432730       -0.2425820132       -0.1676684548
  O        -2.9254998720        0.8922346659        0.2472055993
  H        -2.2994828554        1.6392193580        0.1526859259
  C        -2.8864744894       -1.4620511666        0.4195091493
  N        -3.3313107114       -2.2531220591       -0.5116105989
  H        -3.7369916068       -3.1564218212       -0.2601520551
  H        -3.2706225238       -2.0715241987       -1.5213486595
  O        -0.0701726704       -2.9763131902       -1.3933692492
  H        -0.1816435679       -2.1029332101       -0.9701471629
  H        -0.7915763880       -3.0076261493       -2.0424999031
  O        -5.8429634885        0.6516515262       -0.8184451888
  H        -5.7424155609       -0.2617518527       -1.1241960633
  H        -4.9898695394        0.8446770541       -0.3830690102
      14
 i =       22, E =       -89.5338891662
  C        -2.1816247324       -0.2675104339        0.0854918451
  O        -0.9705103960       -0.2468346989       -0.1667965460
  O        -2.9233161109        0.8842821727        0.2443627990
  H        -2.2979087655        1.6323842664        0.1488820689
  C        -2.8870321260       -1.4659668322        0.4199139893
  N        -3.3421437263       -2.2557218455       -0.5068751815
  H        -3.7453961569       -3.1582787830       -0.2495184882
  H        -3.2968537142       -2.0745671281       -1.5170452478
  O        -0.0726384495       -2.9822380730       -1.3908836899
  H        -0.1843327236       -2.1023554214       -0.9743815777
  H        -0.7741058677       -3.0097210938       -2.0638089931
  O        -5.8349101973        0.6534224145       -0.8200530917
  H        -5.7542849237       -0.2667216066       -1.1166075254
  H        -4.9858518200        0.8401173665       -0.3770108630
      14
 i =       23, E =       -89.5340499478
  C        -2.1820200226       -0.2688168679        0.0824520520
  O        -0.9701725535       -0.2487334455       -0.1690013288
  O        -2.9250685994        0.8822405511        0.2458093247
  H        -2.2971113191        1.6279365934        0.1459990526
  C        -2.8805749745       -1.4711445731        0.4163444510
  N        -3.3512479382       -2.2619975438       -0.5000444457
  H        -3.7506647745       -3.1626456913       -0.2312715941
  H        -3.3273908072       -2.0818613177       -1.5104982653
  O        -0.0813364184       -2.9917826203       -1.3958123465
  H        -0.1908706434       -2.1108495688       -0.9771534124
  H        -0.7566903904       -3.0095688923       -2.0918507737
  O        -5.8351925884        0.6534583173       -0.8151596028
  H        -5.7737548778       -0.2685545301       -1.1045816634
  H        -4.9872954383        0.8364474523       -0.3757451203
      14
 i =       24, E =       -89.5342823129
  C        -2.1823120429       -0.2798248242        0.0848052223
  O        -0.9706971589       -0.2523378509       -0.1717209668
  O        -2.9268218937        0.8713663952        0.2468305142
  H        -2.2908424541        1.6085077975        0.1513772804
  C        -2.8762444315       -1.4841845074        0.4262161410
  N        -3.3822855920       -2.2682346013       -0.4791452800
  H        -3.7918918366       -3.1610210373       -0.2019072553
  H        -3.3905078866       -2.0851282638       -1.4868473634
  O        -0.0650453771       -2.9876541934       -1.3993262787
  H        -0.1839233047       -2.0948856610       -1.0031931514
  H        -0.6788615647       -3.0126446046       -2.1579708959
  O        -5.8367430029        0.6556286699       -0.8126313069
  H        -5.8206403036       -0.2779311836       -1.0729311518
  H        -4.9882476791        0.8059316077       -0.3608343601
      14
 i =       25, E =       -89.5345302725
  C        -2.1864451273       -0.2930914991        0.0824194320
  O        -0.9730868714       -0.2516616663       -0.1766442170
  O        -2.9260196443        0.8631455907        0.2441710208
  H        -2.2811880574        1.5901469360        0.1394952029
  C        -2.8733887103       -1.4992489579        0.4321574254
  N        -3.4296182014       -2.2759909343       -0.4560476302
  H        -3.8312867675       -3.1659185338       -0.1608128537
  H        -3.4867084984       -2.0893284720       -1.4645496313
  O        -0.0765701793       -2.9798184776       -1.4000938484
  H        -0.1901772845       -2.0786709536       -1.0284382793
  H        -0.6080782493       -2.9877770484       -2.2242091617
  O        -5.8325134810        0.6522845779       -0.8211788648
  H        -5.8714941503       -0.3014583384       -1.0279855817
  H        -4.9795472301        0.7624771397       -0.3501163395
      14
 i =       26, E =       -89.5347314930
  C        -2.1844475850       -0.2910535160        0.0822988881
  O        -0.9732320969       -0.2508537062       -0.1739903769
  O        -2.9232715461        0.8657658806        0.2460994139
  H        -2.2803492100        1.5960510349        0.1399098193
  C        -2.8789867412       -1.4926704195        0.4363772407
  N        -3.4227616374       -2.2686436417       -0.4559967237
  H        -3.8263119976       -3.1635679440       -0.1699884019
  H        -3.4649257338       -2.0811123133       -1.4633226842
  O        -0.0846619610       -2.9743189890       -1.4024117624
  H        -0.1909265495       -2.0794701770       -1.0255949155
  H        -0.6274558066       -2.9732922220       -2.1917877699
  O        -5.8433670214        0.6427580823       -0.8279329482
  H        -5.8639176458       -0.3039652548       -1.0341620401
  H        -4.9912147417        0.7669321038       -0.3656610924
      14
 i =       27, E =       -89.5348900289
  C        -2.1808344263       -0.2880749745        0.0804494357
  O        -0.9727919211       -0.2512267607       -0.1723125717
  O        -2.9237796414        0.8654088282        0.2479104550
  H        -2.2857116270        1.6025477980        0.1438307681
  C        -2.8763911658       -1.4875534413        0.4374695208
  N        -3.4215952440       -2.2678495850       -0.4466790615
  H        -3.8335678879       -3.1608590585       -0.1564311936
  H        -3.4747910579       -2.0855098686       -1.4557908965
  O        -0.0883951931       -2.9904121057       -1.3913744333
  H        -0.1958142702       -2.0873524943       -1.0321046100
  H        -0.6022800327       -2.9657811054       -2.2208429401
  O        -5.8550210738        0.6443071802       -0.8222777896
  H        -5.8843760835       -0.2977414416       -1.0210563938
  H        -5.0022857387        0.7675068978       -0.3716706795
      14
 i =       28, E =       -89.5350938056
  C        -2.1811836188       -0.2906299907        0.0856753634
  O        -0.9733478675       -0.2502521439       -0.1748927736
  O        -2.9234432356        0.8639241189        0.2514726873
  H        -2.2883638829        1.5994867399        0.1462274620
  C        -2.8732221961       -1.4929940906        0.4413656229
  N        -3.4346676979       -2.2660321098       -0.4378182164
  H        -3.8473836351       -3.1541085340       -0.1387900578
  H        -3.4912866776       -2.0849642304       -1.4491141628
  O        -0.0764748226       -2.9859228159       -1.4018372546
  H        -0.1939203564       -2.0829932426       -1.0388692872
  H        -0.5662910279       -2.9653335921       -2.2435627498
  O        -5.8510138688        0.6502261558       -0.8222712910
  H        -5.9124249986       -0.3054043553       -1.0055030319
  H        -5.0004842063        0.7616470131       -0.3665236398
      14
 i =       29, E =       -89.5352849464
  C        -2.1826437206       -0.2888475065        0.0887546399
  O        -0.9738938141       -0.2501086800       -0.1729914890
  O        -2.9270097440        0.8667243584        0.2483371125
  H        -2.2857798919        1.5988912017        0.1388574164
  C        -2.8746079987       -1.4893956466        0.4458828834
  N        -3.4424919411       -2.2621216284       -0.4324608972
  H        -3.8468061012       -3.1516336866       -0.1344900924
  H        -3.5065291941       -2.0774493766       -1.4407836884
  O        -0.0845050097       -2.9755473290       -1.4015161333
  H        -0.1970677752       -2.0763390227       -1.0310378753
  H        -0.5592761529       -2.9538682067       -2.2485137518
  O        -5.8468231905        0.6441019537       -0.8250225592
  H        -5.9145192762       -0.3119519491       -0.9948560196
  H        -4.9930164980        0.7509473123       -0.3665792318
      14
 i =       30, E =       -89.5356094305
  C        -2.1810325919       -0.2860297522        0.0922790207
  O        -0.9736513606       -0.2485323801       -0.1739748154
  O        -2.9265122645        0.8704172606        0.2476726989
  H        -2.2892394980        1.6048874328        0.1328959188
  C        -2.8750795017       -1.4826276693        0.4597842406
  N        -3.4574517001       -2.2537175000       -0.4113283817
  H        -3.8618586283       -3.1424944795       -0.1107457745
  H        -3.5324185602       -2.0677915368       -1.4179455954
  O        -0.0870849303       -2.9725094424       -1.3998608196
  H        -0.2013130723       -2.0724163950       -1.0316576845
  H        -0.5114108394       -2.9304109511       -2.2744877227
  O        -5.8489844115        0.6416686368       -0.8254446759
  H        -5.9440144839       -0.3160154090       -0.9640575432
  H        -4.9905961335        0.7350751349       -0.3686634343
      14
 i =       31, E =       -89.5358530172
  C        -2.1793092647       -0.2688104637        0.1110508234
  O        -0.9766042099       -0.2465812121       -0.1720641519
  O        -2.9252457082        0.8925938810        0.2485304629
  H        -2.3054313720        1.6368954492        0.1122616086
  C        -2.8786302952       -1.4524177558        0.5131489200
  N        -3.5110934073       -2.2139760778       -0.3358917535
  H        -3.9121149393       -3.1007823157       -0.0208306154
  H        -3.5998747125       -2.0260487856       -1.3400419964
  O        -0.0883986664       -2.9600184576       -1.3983107452
  H        -0.2146900585       -2.0644352163       -1.0177261570