20  
i =        1, E =     -1798.982818106275545
Co         0.00000000    0.48055165    3.02845099  
Co         -1.24215000    2.63201856    3.02845099  
Co         1.24215000    2.63201856    3.02845099  
Co         2.48430000    0.48055165    3.02845099  
Co         4.96860000    0.48055165    3.02845099  
Co         3.72645000    2.63201856    3.02845099  
Co         6.21075000    2.63201856    3.02845099  
Co         0.00000000    4.78348547    3.02845099  
Co         2.48430000    4.78348547    3.02845099  
Co         1.24215000    6.93495238    3.02845099  
Co         3.72645000    6.93495238    3.02845099  
Co         4.96860000    4.78348547    3.02845099
 C         2.51462298        3.72934805        6.34727176
 O         3.74116398        3.52790682        6.1508305
 O         1.97961559        5.05050141        6.23228956
 H         2.49067326        5.5478879        5.58961799
 C         1.58977306        2.5530865        6.71149888
 N         0.91744035        1.79062997        5.6496473
 H         1.49918529        1.02770385        5.36766048
 H         0.74848314        2.38837036        4.86596377
20  
i =        1, E =     -1798.935816803483476
Co         0.00000000    0.48055165    3.02845099  
Co         -1.24215000    2.63201856    3.02845099  
Co         1.24215000    2.63201856    3.02845099  
Co         2.48430000    0.48055165    3.02845099  
Co         4.96860000    0.48055165    3.02845099  
Co         3.72645000    2.63201856    3.02845099  
Co         6.21075000    2.63201856    3.02845099  
Co         0.00000000    4.78348547    3.02845099  
Co         2.48430000    4.78348547    3.02845099  
Co         1.24215000    6.93495238    3.02845099  
Co         3.72645000    6.93495238    3.02845099  
Co         4.96860000    4.78348547    3.02845099
 C         2.51462298        3.72934805        6.08476993
 O         3.74116398        3.52790682        5.88832867
 O         1.97961559        5.05050141        5.96978773
 H         2.49067326        5.5478879        5.32711616
 C         1.58977306        2.5530865        6.44899705
 N         0.91744035        1.79062997        5.38714547
 H         1.49918529        1.02770385        5.10515865
 H         0.74848314        2.38837036        4.60346194
20  
i =        1, E =     -1798.883062655974300 
Co         0.00000000    0.48055165    3.02845099  
Co         -1.24215000    2.63201856    3.02845099  
Co         1.24215000    2.63201856    3.02845099  
Co         2.48430000    0.48055165    3.02845099  
Co         4.96860000    0.48055165    3.02845099  
Co         3.72645000    2.63201856    3.02845099  
Co         6.21075000    2.63201856    3.02845099  
Co         0.00000000    4.78348547    3.02845099  
Co         2.48430000    4.78348547    3.02845099  
Co         1.24215000    6.93495238    3.02845099  
Co         3.72645000    6.93495238    3.02845099  
Co         4.96860000    4.78348547    3.02845099
 C         2.51462298        3.72934805        5.8222681
 O         3.74116398        3.52790682        5.62582684
 O         1.97961559        5.05050141        5.7072859
 H         2.49067326        5.5478879        5.06461433
 C         1.58977306        2.5530865        6.18649522
 N         0.91744035        1.79062997        5.12464364
 H         1.49918529        1.02770385        4.84265682
 H         0.74848314        2.38837036        4.34096011
20  
i =        1, E =     -1798.803212567287119 
Co         0.00000000    0.48055165    3.02845099  
Co         -1.24215000    2.63201856    3.02845099  
Co         1.24215000    2.63201856    3.02845099  
Co         2.48430000    0.48055165    3.02845099  
Co         4.96860000    0.48055165    3.02845099  
Co         3.72645000    2.63201856    3.02845099  
Co         6.21075000    2.63201856    3.02845099  
Co         0.00000000    4.78348547    3.02845099  
Co         2.48430000    4.78348547    3.02845099  
Co         1.24215000    6.93495238    3.02845099  
Co         3.72645000    6.93495238    3.02845099  
Co         4.96860000    4.78348547    3.02845099
 C         2.51462298        3.72934805        5.55976627
 O         3.74116398        3.52790682        5.36332501
 O         1.97961559        5.05050141        5.44478407
 H         2.49067326        5.5478879        4.8021125
 C         1.58977306        2.5530865        5.92399339
 N         0.91744035        1.79062997        4.86214181
 H         1.49918529        1.02770385        4.58015499
 H         0.74848314        2.38837036        4.07845828
20  
i =        1, E =     -1798.624337523516033
Co         0.00000000    0.48055165    3.02845099  
Co         -1.24215000    2.63201856    3.02845099  
Co         1.24215000    2.63201856    3.02845099  
Co         2.48430000    0.48055165    3.02845099  
Co         4.96860000    0.48055165    3.02845099  
Co         3.72645000    2.63201856    3.02845099  
Co         6.21075000    2.63201856    3.02845099  
Co         0.00000000    4.78348547    3.02845099  
Co         2.48430000    4.78348547    3.02845099  
Co         1.24215000    6.93495238    3.02845099  
Co         3.72645000    6.93495238    3.02845099  
Co         4.96860000    4.78348547    3.02845099
 C         2.51462298        3.72934805        5.29726444
 O         3.74116398        3.52790682        5.10082318
 O         1.97961559        5.05050141        5.18228224
 H         2.49067326        5.5478879        4.53961067
 C         1.58977306        2.5530865        5.66149156
 N         0.91744035        1.79062997        4.59963998
 H         1.49918529        1.02770385        4.31765316
 H         0.74848314        2.38837036        3.81595645
20  
i =        1, E =     -1798.162565145923736
Co         0.00000000    0.48055165    3.02845099  
Co         -1.24215000    2.63201856    3.02845099  
Co         1.24215000    2.63201856    3.02845099  
Co         2.48430000    0.48055165    3.02845099  
Co         4.96860000    0.48055165    3.02845099  
Co         3.72645000    2.63201856    3.02845099  
Co         6.21075000    2.63201856    3.02845099  
Co         0.00000000    4.78348547    3.02845099  
Co         2.48430000    4.78348547    3.02845099  
Co         1.24215000    6.93495238    3.02845099  
Co         3.72645000    6.93495238    3.02845099  
Co         4.96860000    4.78348547    3.02845099
 C         2.51462298        3.72934805        5.03476261
 O         3.74116398        3.52790682        4.83832135
 O         1.97961559        5.05050141        4.91978041
 H         2.49067326        5.5478879        4.27710884
 C         1.58977306        2.5530865        5.39898973
 N         0.91744035        1.79062997        4.33713815
 H         1.49918529        1.02770385        4.05515133
 H         0.74848314        2.38837036        3.55345462
20  
i =        1, E =     -1797.263564893270541  
Co         0.00000000    0.48055165    3.02845099  
Co         -1.24215000    2.63201856    3.02845099  
Co         1.24215000    2.63201856    3.02845099  
Co         2.48430000    0.48055165    3.02845099  
Co         4.96860000    0.48055165    3.02845099  
Co         3.72645000    2.63201856    3.02845099  
Co         6.21075000    2.63201856    3.02845099  
Co         0.00000000    4.78348547    3.02845099  
Co         2.48430000    4.78348547    3.02845099  
Co         1.24215000    6.93495238    3.02845099  
Co         3.72645000    6.93495238    3.02845099  
Co         4.96860000    4.78348547    3.02845099
 C         2.51462298        3.72934805        4.77226078
 O         3.74116398        3.52790682        4.57581952
 O         1.97961559        5.05050141        4.65727858
 H         2.49067326        5.5478879        4.01460701
 C         1.58977306        2.5530865        5.1364879
 N         0.91744035        1.79062997        4.07463632
 H         1.49918529        1.02770385        3.7926495
 H         0.74848314        2.38837036        3.29095279

