      15
 i =        1, E =     -1060.157966217615012
      Co          1.24215000    2.63201856    3.02845099
      Co          3.72645000    2.63201856    3.02845099
      Co          0.00000000    4.78348547    3.02845099
      Co          2.48430000    4.78348547    3.02845099
      Co          1.24215000    6.93495238    3.02845099
      Co          3.72645000    6.93495238    3.02845099
      Co          4.96860000    4.78348547    3.02845099
      C           3.35528046    4.80688532    6.37421647
      C           1.23062087    5.01328706    5.94111995
      N           2.24201469    5.74804311    6.24205938
      N           2.95698411    3.58953031    6.16804679
      N           1.54935689    3.58809049    6.12322039
      H           1.17164179    3.24370994    6.98271636
      H           0.28917107    5.38674465    5.59600882
      H           4.36273161    5.08599197    6.60234288
      15
 i =        2, E =     1060.170113612751493
      Co          1.24215000    2.63201856    3.02845099
      Co          3.72645000    2.63201856    3.02845099
      Co          0.00000000    4.78348547    3.02845099
      Co          2.48430000    4.78348547    3.02845099
      Co          1.24215000    6.93495238    3.02845099
      Co          3.72645000    6.93495238    3.02845099
      Co          4.96860000    4.78348547    3.02845099
      C           3.36783847    4.81295789    6.12869638
      C           1.24317888    5.01935963    5.69559986
      N           2.25457270    5.75411568    5.99653929
      N           2.96954212    3.59560288    5.92252670
      N           1.56191490    3.59416306    5.87770030
      H           1.18419980    3.24978251    6.73719627
      H           0.30172908    5.39281722    5.35048873
      H           4.37528962    5.09206454    6.35682279
      15
 i =        3, E =     -1060.125939878922736
      Co          1.24215000    2.63201856    3.02845099
      Co          3.72645000    2.63201856    3.02845099
      Co          0.00000000    4.78348547    3.02845099
      Co          2.48430000    4.78348547    3.02845099
      Co          1.24215000    6.93495238    3.02845099
      Co          3.72645000    6.93495238    3.02845099
      Co          4.96860000    4.78348547    3.02845099
      C           3.38876848    4.82307884    5.71949623
      C           1.26410889    5.02948058    5.28639971
      N           2.27550271    5.76423663    5.58733914
      N           2.99047213    3.60572383    5.51332655
      N           1.58284491    3.60428401    5.46850015
      H           1.20512981    3.25990346    6.32799612
      H           0.32265909    5.40293817    4.94128858
      H           4.39621963    5.10218549    5.94762264
      15
 i =        4, E =     -1060.059884641376584
      Co          1.24215000    2.63201856    3.02845099
      Co          3.72645000    2.63201856    3.02845099
      Co          0.00000000    4.78348547    3.02845099
      Co          2.48430000    4.78348547    3.02845099
      Co          1.24215000    6.93495238    3.02845099
      Co          3.72645000    6.93495238    3.02845099
      Co          4.96860000    4.78348547    3.02845099
      C           3.40132649    4.82915141    5.47397614
      C           1.27666690    5.03555315    5.04087962
      N           2.28806072    5.77030920    5.34181905
      N           3.00303014    3.61179640    5.26780646
      N           1.59540292    3.61035658    5.22298006
      H           1.21768782    3.26597603    6.08247603
      H           0.33521710    5.40901074    4.69576849
      H           4.40877764    5.10825806    5.70210255
      15
 i =        5, E =     -1060.149821015302678
      Co          1.24215000    2.63201856    3.02845099
      Co          3.72645000    2.63201856    3.02845099
      Co          0.00000000    4.78348547    3.02845099
      Co          2.48430000    4.78348547    3.02845099
      Co          1.24215000    6.93495238    3.02845099
      Co          3.72645000    6.93495238    3.02845099
      Co          4.96860000    4.78348547    3.02845099
      C           3.44907232    4.85611200    5.23077249
      C           1.32441273    5.06251374    4.79767597
      N           2.33580655    5.79726979    5.09861540
      N           3.05077597    3.63875699    5.02460281
      N           1.64314875    3.63731717    4.97977641
      H           1.26543365    3.29293662    5.83927238
      H           0.38296293    5.43597133    4.45256484
      H           4.45652347    5.13521865    5.45889890
      15
 i =        6, E =     -1060.035564187131058
      Co          1.24215000    2.63201856    3.02845099
      Co          3.72645000    2.63201856    3.02845099
      Co          0.00000000    4.78348547    3.02845099
      Co          2.48430000    4.78348547    3.02845099
      Co          1.24215000    6.93495238    3.02845099
      Co          3.72645000    6.93495238    3.02845099
      Co          4.96860000    4.78348547    3.02845099
      C           3.45744432    4.86016038    5.06709243
      C           1.33278473    5.06656212    4.63399591
      N           2.34417855    5.80131817    4.93493534
      N           3.05914797    3.64280537    4.86092275
      N           1.65152075    3.64136555    4.81609635
      H           1.27380565    3.29698500    5.67559232
      H           0.39133493    5.44001971    4.28888478
      H           4.46489547    5.13926703    5.29521884
      15
 i =        7, E =     -1059.864556405604390
      Co          1.24215000    2.63201856    3.02845099
      Co          3.72645000    2.63201856    3.02845099
      Co          0.00000000    4.78348547    3.02845099
      Co          2.48430000    4.78348547    3.02845099
      Co          1.24215000    6.93495238    3.02845099
      Co          3.72645000    6.93495238    3.02845099
      Co          4.96860000    4.78348547    3.02845099
      C           3.51984115    4.89420564    4.53744868
      C           1.39518156    5.10060738    4.10435216
      N           2.40657538    5.83536343    4.40529159
      N           3.12154480    3.67685063    4.33127900
      N           1.71391758    3.67541081    4.28645260
      H           1.33620248    3.33103026    5.14594857
      H           0.45373176    5.47406497    3.75924103
      H           4.52729230    5.17331229    4.76557509
      15
 i =        8, E =     -1059.316145398644267
      Co          1.24215000    2.63201856    3.02845099
      Co          3.72645000    2.63201856    3.02845099
      Co          0.00000000    4.78348547    3.02845099
      Co          2.48430000    4.78348547    3.02845099
      Co          1.24215000    6.93495238    3.02845099
      Co          3.72645000    6.93495238    3.02845099
      Co          4.96860000    4.78348547    3.02845099
      C           3.53449216    4.90129031    4.25100857
      C           1.40983257    5.10769205    3.81791205
      N           2.42122639    5.84244810    4.11885148
      N           3.13619581    3.68393530    4.04483889
      N           1.72856859    3.68249548    4.00001249
      H           1.35085349    3.33811493    4.85950846
      H           0.46838277    5.48114964    3.47280092
      H           4.54194331    5.18039696    4.47913498
      15
 i =        9, E =     -1057.650616027153546
      Co          1.24215000    2.63201856    3.02845099
      Co          3.72645000    2.63201856    3.02845099
      Co          0.00000000    4.78348547    3.02845099
      Co          2.48430000    4.78348547    3.02845099
      Co          1.24215000    6.93495238    3.02845099
      Co          3.72645000    6.93495238    3.02845099
      Co          4.96860000    4.78348547    3.02845099
      C           3.48295353    4.86862313    3.87809554
      C           1.35829394    5.07502487    3.44499902
      N           2.36968776    5.80978092    3.74593845
      N           3.08465718    3.65126812    3.67192586
      N           1.67702996    3.64982830    3.62709946
      H           1.29931486    3.30544775    4.48659543
      H           0.41684414    5.44848246    3.09988789
      H           4.49040468    5.14772978    4.10622195