      14
 i =        1, E =       -77.2774732066
  C         1.3424873945        1.6072847818       -0.4020084224
  C        -0.2338025377        0.2599642744        0.2211916593
  N         0.0725689887        1.5286629857        0.2954441691
  N         1.6090178193        0.5503056680       -1.0987272068
  N         0.7175983277       -0.4438386205       -0.6336460769
  H         1.1833939761       -1.1021456789       -0.0102904837
  H        -1.2135846228       -0.1302210900        0.4673719071
  H         1.9093769567        2.5236680988       -0.4515772354
  O        -0.7947099013        2.3145067412        2.1680912746
  H        -0.1455637239        2.4383433840        1.4373761634
  H        -0.9970388806        1.4195494025        1.8554114957
  O         3.0377011893       -1.1609632300       -1.5865796547
  H         2.5269776187       -0.9921711272       -0.7689364628
  H         3.5723465645       -0.3260403208       -1.5058042852
      14
 i =        2, E =       -77.3320250219
  C         1.2388590411        1.6906946117       -0.5406229249
  C        -0.2732439406        0.3373810643        0.1143915900
  N         0.0967706741        1.5676119178        0.2542269131
  N         1.6888665087        0.5318266881       -0.9957522249
  N         0.6665038704       -0.4036266154       -0.6358078341
  H         1.1309017426       -1.1781045427       -0.1061233546
  H        -1.1751584182       -0.1679828274        0.4995853744
  H         1.9017470085        2.5575270126       -0.4751249676
  O        -0.8307073421        2.3652647495        2.3649146026
  H        -0.2668312048        2.4547821196        1.5081836106
  H        -1.0639005098        1.4942167863        1.9843449346
  O         3.2377011893       -1.3212986188       -1.5653782794
  H         2.6097023437       -1.0789921657       -0.8224076022
  H         3.6316405691       -0.3542145704       -1.5801461244
      14
 i =        3, E =       -77.3715183409
  C         1.2509360371        1.7135832471       -0.5075145295
  C        -0.2652253158        0.3798932366        0.0892843943
  N         0.0195525393        1.6782591174        0.0997079343
  N         1.6949008399        0.5660401291       -0.9597986711
  N         0.6499915381       -0.3351558178       -0.6190107735
  H         1.0388272145       -1.2830157807       -0.2141525700
  H        -1.1286116343       -0.1749456795        0.5267669392
  H         1.8660083168        2.6067705242       -0.5388590447
  O        -0.8546239477        2.3776918741        2.4746566869
  H        -0.3454030904        2.5027786573        1.5756385370
  H        -1.1870789036        1.5211658326        2.1843449346
  O         3.3509996396       -1.3508494971       -1.5732321188
  H         2.7285717291       -1.2255237411       -0.8627139101
  H         3.7694054851       -0.4783780845       -1.6695063320
      14
 i =        4, E =       -77.3892785192
  C         1.2323024169        1.7333896754       -0.5130119454
  C        -0.2793280807        0.3882543682        0.0586970633
  N        -0.0239256042        1.7128986208        0.0241110237
  N         1.7296287611        0.5795273453       -0.9294026136
  N         0.6718135636       -0.2819827112       -0.5981372781
  H         0.9703450873       -1.2903695246       -0.2724189870
  H        -1.1271035503       -0.1205744302        0.5341688311
  H         1.8204872971        2.6430748968       -0.6068803565
  O        -0.8846199849        2.3837559989        2.5099805490
  H        -0.3791372007        2.5404372605        1.6609259872
  H        -1.3106026253        1.5190563264        2.3721819831
  O         3.5252430078       -1.4969346441       -1.5892297479
  H         2.8392205179       -1.2740640161       -0.9211186008
  H         3.8315525171       -0.5517236443       -1.7222533234
      14
 i =        5, E =       -77.3986358351
  C         1.2052147024        1.7698676068       -0.5475510257
  C        -0.3038073717        0.4051467706       -0.0153788246
  N        -0.0278106642        1.7157696690       -0.0148448672
  N         1.7031550840        0.5713788950       -0.8839462183
  N         0.6884794424       -0.3020277400       -0.5773764761
  H         0.9394236546       -1.2260738714       -0.2937687418
  H        -1.1313237075       -0.0399166442        0.5119690006
  H         1.7708725095        2.6932874443       -0.6906382421
  O        -0.9421746465        2.4115392892        2.5738153082
  H        -0.4484602933        2.5482518519        1.7644677378
  H        -1.4148936292        1.5407620914        2.5462793852
  O         3.6581651161       -1.5700772769       -1.6225515895
  H         2.9893662841       -1.3665811740       -0.9661449126
  H         3.9560487198       -0.6910143660       -1.7767675593
      14
 i =        6, E =       -77.4077911141
  C         1.2082875795        1.7687780737       -0.5628113866
  C        -0.3419711578        0.4311675078       -0.0240185097
  N        -0.0383775994        1.7286214690       -0.0317798848
  N         1.7300329357        0.5729894073       -0.8848240737
  N         0.7120873038       -0.2568252333       -0.5279627616
  H         0.9219456906       -1.2557538397       -0.3403736239
  H        -1.1633276873       -0.0264191857        0.4915568031
  H         1.7515518552        2.7010683527       -0.7266550203
  O        -0.9578647745        2.4277271578        2.6533999879
  H        -0.5160858851        2.5388423368        1.7860894809
  H        -1.4251243018        1.5777583258        2.5866800476
  O         3.7374906054       -1.6184044450       -1.5987459381
  H         3.0275599616       -1.4284439364       -0.9708728765
  H         4.0053648378       -0.7086948841       -1.8544888639
      14
 i =        7, E =       -77.4103292703
  C         1.1995520242        1.7765472184       -0.5848820356
  C        -0.3232915553        0.4388474922        0.0107265139
  N        -0.0611843602        1.7597793798       -0.0581958407
  N         1.7320764770        0.5636066084       -0.8617171328
  N         0.7057484411       -0.2606271326       -0.5142123334
  H         0.9151747677       -1.2537989076       -0.3735241098
  H        -1.1735972898       -0.0155391376        0.4584585736
  H         1.7462562214        2.6988850750       -0.7513226622
  O        -0.9732237037        2.4371255717        2.7000479555
  H        -0.5642133272        2.5387794870        1.8034465743
  H        -1.4390481381        1.5984247846        2.6186763427
  O         3.7837009957       -1.6448217637       -1.5936048031
  H         3.0551352435       -1.4456059020       -0.9765753529
  H         4.0409565976       -0.7375760828       -1.8859057123
      14
 i =        8, E =       -77.4130780355
  C         1.1983131621        1.7904799667       -0.6088939770
  C        -0.3301307456        0.4678196825        0.0179082725
  N        -0.0730723024        1.7843101963       -0.0840489971
  N         1.7199695073        0.5746269417       -0.8497007669
  N         0.7167363322       -0.2420188626       -0.4657635265
  H         0.8839291322       -1.2623539301       -0.4353962157
  H        -1.2132110525        0.0047485960        0.4116223249
  H         1.7342611415        2.7069717724       -0.8153033288
  O        -1.0153270771        2.4567549991        2.7820853672
  H        -0.6541342370        2.5366317687        1.8590093391
  H        -1.4985164015        1.6296453822        2.7195904830
  O         3.8847098834       -1.7076643452       -1.6011029809
  H         3.1489057381       -1.4841209652       -0.9978115865
  H         4.1273622673       -0.8303778231       -1.9336934236
      14
 i =        9, E =       -77.4147272138
  C         1.2020667686        1.7878894759       -0.6130785140
  C        -0.3362141091        0.4771588570        0.0180128519
  N        -0.0625194314        1.7743243416       -0.0767357854
  N         1.7166774758        0.5869609438       -0.8537197495
  N         0.7198725806       -0.2358653646       -0.4518620314
  H         0.8635002988       -1.2253852438       -0.4466167521
  H        -1.2476346742        0.0171898443        0.3842479731
  H         1.7325809940        2.7014400487       -0.8501883681
  O        -1.0334762255        2.4702509779        2.7991450573
  H        -0.6813821678        2.5351949618        1.8893262271
  H        -1.5391769546        1.6411405606        2.7813083912
  O         3.9253904670       -1.7421929460       -1.5953486665
  H         3.2096008063       -1.5027424028       -0.9914655857
  H         4.1601452094       -0.8688590089       -1.9763430766
      14
 i =       10, E =       -77.4149874633
  C         1.1869883232        1.8001468445       -0.6300064370
  C        -0.3352679011        0.4870583184        0.0193574226
  N        -0.0646957325        1.7798738010       -0.0831352789
  N         1.7336568954        0.5960632361       -0.8390521659
  N         0.7259949824       -0.2228173517       -0.4343166319
  H         0.8331628579       -1.2418509160       -0.4799403933
  H        -1.2638546907        0.0361732337        0.3668114320
  H         1.7289308464        2.7028192200       -0.8733177339
  O        -1.0552306222        2.4900664631        2.8167161726
  H        -0.7100441984        2.5393448007        1.9149341317
  H        -1.5734996159        1.6577853212        2.8429186572
  O         3.9691404986       -1.7678778351       -1.5976810773
  H         3.2644122318       -1.5143197006       -0.9935966826
  H         4.2052809389       -0.9178846734       -1.9990063610
      14
 i =       11, E =       -77.4157414356
  C         1.1931540887        1.7934761683       -0.6184388292
  C        -0.3340422439        0.4872651811        0.0098997779
  N        -0.0690075270        1.7823188274       -0.0842917682
  N         1.7234710554        0.5935193432       -0.8447367630
  N         0.7238462475       -0.2348919532       -0.4354451306
  H         0.8397445836       -1.2482534735       -0.4734359195
  H        -1.2540719714        0.0363629077        0.3733475655
  H         1.7288234503        2.7032576709       -0.8632595259
  O        -1.0549564237        2.4906496765        2.8161099273
  H        -0.7150103891        2.5402709528        1.9005077622
  H        -1.5604342412        1.6612448647        2.8300900752
  O         3.9634281956       -1.7637761561       -1.5909003299
  H         3.2484824787       -1.4941851665       -0.9875142494
  H         4.2004486274       -0.9113972413       -1.9951069092
      14
 i =       12, E =       -77.4159796251
  C         1.1952436140        1.7912873538       -0.6148493406
  C        -0.3361734021        0.4781942974        0.0138714134
  N        -0.0699577097        1.7768170748       -0.0828361033
  N         1.7253106827        0.5914144056       -0.8463239860
  N         0.7184604314       -0.2378833101       -0.4420235381
  H         0.8421143636       -1.2432655158       -0.4683855112
  H        -1.2527267945        0.0334034992        0.3822383276
  H         1.7333504622        2.7018844831       -0.8481603308
  O        -1.0629137651        2.4948058251        2.8022388525
  H        -0.7164690185        2.5375210547        1.8854230778
  H        -1.5484921597        1.6627592409        2.8166475774
  O         3.9419044482       -1.7463046751       -1.5878870877
  H         3.2446145397       -1.4762362736       -0.9737234729
  H         4.1939687199       -0.9053331900       -1.9904007919
      14
 i =       13, E =       -77.4160993492
  C         1.1962188004        1.7925722784       -0.6159399442
  C        -0.3402793573        0.4762878840        0.0150185288
  N        -0.0739303941        1.7782796027       -0.0916548328
  N         1.7238789777        0.5900389390       -0.8422370375
  N         0.7132027900       -0.2400404450       -0.4371630748
  H         0.8308211348       -1.2419591264       -0.4825086332
  H        -1.2580986543        0.0391031512        0.3819699804
  H         1.7331043294        2.7053812228       -0.8444927732
  O        -1.0947146253        2.5155499834        2.7932777774
  H        -0.7430606951        2.5372096846        1.8819051343
  H        -1.5621182181        1.6749908882        2.8463453373
  O         3.9611987392       -1.7526581393       -1.5706898601
  H         3.2753416627       -1.4579124288       -0.9528748115
  H         4.2166091352       -0.9195570434       -2.0187484463
      14
 i =       14, E =       -77.4165516710
  C         1.1951994654        1.7882721861       -0.6118326323
  C        -0.3404485043        0.4773830660        0.0091968443
  N        -0.0708581733        1.7762186766       -0.0863187046
  N         1.7215955810        0.5882283323       -0.8451599350
  N         0.7123033443       -0.2440011741       -0.4382634003
  H         0.8295124789       -1.2521347504       -0.4854213271
  H        -1.2531269636        0.0356973327        0.3863900385
  H         1.7351337556        2.7014439321       -0.8300333881
  O        -1.0948575585        2.5228899383        2.7771013176
  H        -0.7422967111        2.5399501021        1.8645032018
  H        -1.5638394266        1.6765783796        2.8483503772
  O         3.9487114935       -1.7431757787       -1.5728856487
  H         3.2806254699       -1.4235351198       -0.9430055813
  H         4.2133101649       -0.9197439779       -2.0144428724
      14
 i =       15, E =       -77.4168284901
  C         1.1900869416        1.7853376795       -0.6106463082
  C        -0.3431005677        0.4797955937        0.0045857738
  N        -0.0714095948        1.7745031608       -0.0826709297
  N         1.7242560886        0.5861872648       -0.8397097225
  N         0.7139321690       -0.2431548769       -0.4357102186
  H         0.8184643269       -1.2549876881       -0.5018748125
  H        -1.2591333314        0.0375434938        0.3815732692
  H         1.7348331029        2.6961597530       -0.8287435778
  O        -1.0919332294        2.5326650828        2.7896602679
  H        -0.7643188861        2.5409340550        1.8563778988
  H        -1.5751053549        1.6909150773        2.8689686433
  O         3.9585534169       -1.7462521740       -1.5768667996
  H         3.3197556813       -1.3914354316       -0.9326706066
  H         4.2306426707       -0.9387586148       -2.0339781340
      14
 i =       16, E =       -77.4174523621
  C         1.1886365069        1.7780668174       -0.5990943950
  C        -0.3472491178        0.4737663837        0.0039460300
  N        -0.0700915585        1.7669384494       -0.0717950761
  N         1.7211148596        0.5789732264       -0.8337909842
  N         0.7102135860       -0.2485760566       -0.4386720913
  H         0.8068436437       -1.2650364847       -0.5252461339
  H        -1.2639300913        0.0299598385        0.3824393312
  H         1.7424642547        2.6876510619       -0.8040033177
  O        -1.0932407673        2.5531364992        2.7742060115
  H        -0.7835795626        2.5392214730        1.8323763335
  H        -1.5734197764        1.7128774526        2.8725104890
  O         3.9463987090       -1.7292065391       -1.5748310577
  H         3.3749536271       -1.3047373670       -0.8946375222
  H         4.2447124894       -0.9503015879       -2.0728033264
      14
 i =       17, E =       -77.4179480699
  C         1.1930539153        1.7668008320       -0.5814623847
  C        -0.3546448382        0.4679305755        0.0044689610
  N        -0.0741983402        1.7627323897       -0.0647652846
  N         1.7166645680        0.5671688502       -0.8232744724
  N         0.7041156294       -0.2552787117       -0.4401023524
  H         0.7921180552       -1.2659628081       -0.5598326687
  H        -1.2754273358        0.0219006644        0.3734902798
  H         1.7474332825        2.6795247197       -0.7833005000
  O        -1.0944619625        2.5844251242        2.7641831418
  H        -0.8070894256        2.5398822289        1.8246880639
  H        -1.5773360186        1.7489851239        2.8916934944
  O         3.9492757542       -1.7163120099       -1.5797010648
  H         3.4697434732       -1.2226279903       -0.8586794251
  H         4.2777498225       -0.9781860998       -2.1292151809
      14
 i =       18, E =       -77.4183527383
  C         1.1998844777        1.7681150792       -0.5746697861
  C        -0.3537985935        0.4598390563        0.0103768147
  N        -0.0737641563        1.7595450961       -0.0629002581
  N         1.7129882630        0.5639144528       -0.8209651071
  N         0.7021718972       -0.2575619438       -0.4473786777
  H         0.7983208017       -1.2602682406       -0.5575016741
  H        -1.2754587146        0.0138422617        0.3680898646
  H         1.7498680803        2.6820646338       -0.7805631258
  O        -1.0727171212        2.5725130716        2.7660486573
  H        -0.7872961164        2.5390186635        1.8383549455
  H        -1.5653890153        1.7475707184        2.8722430553
  O         3.9479578466       -1.7046967340       -1.5863169016
  H         3.4763110285       -1.2528511790       -0.8730275629
  H         4.2736120039       -0.9617304923       -2.1287016586
      14
 i =       19, E =       -77.4187482748
  C         1.2000882814        1.7678291500       -0.5700783721
  C        -0.3557819411        0.4540145262        0.0078535737
  N        -0.0716392913        1.7521821832       -0.0591659628
  N         1.7142659934        0.5631106872       -0.8184846523
  N         0.6982388385       -0.2619214134       -0.4493940208
  H         0.7908252550       -1.2639943077       -0.5685671164
  H        -1.2777915810        0.0126645659        0.3648590038
  H         1.7535146123        2.6792694516       -0.7675731002
  O        -1.0678324336        2.5807318690        2.7668771746
  H        -0.7997487940        2.5411342532        1.8225912129
  H        -1.5718260003        1.7589449534        2.8908850264
  O         3.9511468821       -1.7020751731       -1.5834936881
  H         3.5020571246       -1.2206124704       -0.8623773571
  H         4.2849302836       -0.9738870125       -2.1392831262
      14
 i =       20, E =       -77.4189983133
  C         1.1979413931        1.7594092902       -0.5586578468
  C        -0.3580954955        0.4524168455       -0.0010772317
  N        -0.0731989914        1.7485059263       -0.0491280175
  N         1.7186896773        0.5591884154       -0.8173090723
  N         0.6960258062       -0.2677670602       -0.4512601149
  H         0.7847905033       -1.2712217515       -0.5862079778
  H        -1.2789364215        0.0092046629        0.3564957451
  H         1.7544949834        2.6688066853       -0.7474593209
  O        -1.0697451967        2.5874509898        2.7679886011
  H        -0.8133234041        2.5447721463        1.8220412222
  H        -1.5740594169        1.7718350415        2.9066996666
  O         3.9555368438       -1.6947385014       -1.5815522036
  H         3.5408001111       -1.1807243919       -0.8521774725
  H         4.3001822026       -0.9877198322       -2.1530527761
      14
 i =       21, E =       -77.4193505140
  C         1.2003828802        1.7519228425       -0.5399813575
  C        -0.3607494765        0.4409165867       -0.0053602918
  N        -0.0727161366        1.7375110990       -0.0354505011
  N         1.7183561853        0.5549440788       -0.8159124752
  N         0.6924134484       -0.2766423284       -0.4579520021
  H         0.7801352020       -1.2805638998       -0.6065541980
  H        -1.2828920380       -0.0018574891        0.3453410745
  H         1.7606120886        2.6607468431       -0.7167360991
  O        -1.0580779433        2.5908359989        2.7693232998
  H        -0.8211419474        2.5456748893        1.8163401644
  H        -1.5757077775        1.7860324861        2.9219175126
  O         3.9563647961       -1.6729359627       -1.5773204907
  H         3.5832884056       -1.1366464033       -0.8433599032
  H         4.3161953904       -0.9914494764       -2.1727761066
      14
 i =       22, E =       -77.4196600179
  C         1.2057403950        1.7360601547       -0.4979681441
  C        -0.3652919856        0.4117031327       -0.0107765044
  N        -0.0698109381        1.7101519865        0.0003966075
  N         1.7190661316        0.5457109826       -0.8122732326
  N         0.6850305587       -0.2970481276       -0.4778883309
  H         0.7782256637       -1.2949266963       -0.6390518859
  H        -1.2920380981       -0.0326773341        0.3218560830
  H         1.7741131137        2.6453666948       -0.6456834661
  O        -1.0465016511        2.5923635448        2.7648049329
  H        -0.8290286297        2.5412745436        1.8116142836
  H        -1.5781812713        1.8053501016        2.9459711048
  O         3.9557125467       -1.6187880964       -1.5707743348
  H         3.6431258926       -1.0486642962       -0.8443283823
  H         4.3393499955       -0.9839234239       -2.1925597617
      14
 i =       23, E =       -77.4200459327
  C         1.2075911163        1.7247591132       -0.4680180213
  C        -0.3676080049        0.3918704906       -0.0101575123
  N        -0.0688508631        1.6915287699        0.0269007278
  N         1.7164681160        0.5388245795       -0.8062271708
  N         0.6829605434       -0.3076076192       -0.4911922880
  H         0.7784776016       -1.3061634408       -0.6682696712
  H        -1.3010116420       -0.0581697754        0.3026027941
  H         1.7805094490        2.6362310133       -0.5938657621
  O        -1.0422930302        2.5950918462        2.7679571957
  H        -0.8378170313        2.5295322670        1.8128738647
  H        -1.5860127533        1.8205545278        2.9627720950
  O         3.9536079256       -1.5816791637       -1.5659738009
  H         3.6796669698       -0.9812202135       -0.8492172202
  H         4.3553870721       -0.9803993713       -2.2197606382
      14
 i =       24, E =       -77.4205066596
  C         1.2077907894        1.7168718197       -0.4443545303
  C        -0.3670156624        0.3748504849       -0.0073679908
  N        -0.0699528713        1.6747112998        0.0471395482
  N         1.7165403005        0.5362119508       -0.7990696209
  N         0.6865754599       -0.3099914984       -0.5077986523
  H         0.7882854008       -1.3085977540       -0.6862876920
  H        -1.3068412029       -0.0834186842        0.2857649825
  H         1.7785112390        2.6333412926       -0.5547118237
  O        -1.0403238671        2.5864340982        2.7800152791
  H        -0.8333699373        2.5063012917        1.8265193497
  H        -1.6002576854        1.8212833367        2.9721900093
  O         3.9533674163       -1.5631779824       -1.5669954172
  H         3.6644682705       -0.9492972285       -0.8847536602
  H         4.3537603412       -0.9730788961       -2.2254391682
      14
 i =       25, E =       -77.4213619194
  C         1.2100975573        1.6862505982       -0.3519546475
  C        -0.3709233886        0.3099441908       -0.0109149182
  N        -0.0731505521        1.6076086684        0.1219726327
  N         1.7209200038        0.5214708680       -0.7663775786
  N         0.6884058309       -0.3312301667       -0.5728599845
  H         0.8062581662       -1.3180323695       -0.7647831885
  H        -1.3243245861       -0.1687339928        0.2296948809
  H         1.7785151148        2.6157551457       -0.4005476214
  O        -1.0404542116        2.5722961547        2.8017222589
  H        -0.8374793505        2.4323249289        1.8544279362
  H        -1.6465555819        1.8416513246        3.0173646226
  O         3.9495962482       -1.5005536667       -1.5696501772
  H         3.6784358554       -0.7659963921       -0.9699338293
  H         4.3711425821       -0.9821963818       -2.2786606272
      14
 i =       26, E =       -77.4226701477
  C         1.2059510308        1.6806730518       -0.3291384379
  C        -0.3714703410        0.3002460392       -0.0252939183
  N        -0.0774075419        1.5904169148        0.1378707565
  N         1.7261461414        0.5279586214       -0.7597658063
  N         0.6918092079       -0.3324312838       -0.5863855162
  H         0.8190649915       -1.3210418587       -0.7798183556
  H        -1.3160256896       -0.1815090453        0.2198648098
  H         1.7694343965        2.6116168616       -0.3632815368
  O        -1.0683472418        2.5683592120        2.8092683556
  H        -0.8394399092        2.4033083806        1.8690084227
  H        -1.6647128564        1.8359654471        3.0360161007
  O         3.9521231355       -1.4952864832       -1.5627916757
  H         3.6203221070       -0.7543024103       -1.0126156101
  H         4.3764498387       -0.9924645099       -2.2879474792
      14
 i =       27, E =       -77.4235606004
  C         1.2040269755        1.6524906205       -0.2293812198
  C        -0.3720615390        0.2475332963       -0.0551738988
  N        -0.0856617296        1.5213914263        0.2121419806
  N         1.7343705955        0.5374404255       -0.7364501105
  N         0.6977904382       -0.3492273017       -0.6382286739
  H         0.8653300305       -1.3376430087       -0.8527364924
  H        -1.3052405609       -0.2592127364        0.1622134074
  H         1.7561708860        2.5890885745       -0.1941893751
  O        -1.1284237571        2.5579858591        2.8273759617
  H        -0.8375499576        2.3075526004        1.9119947483
  H        -1.7208549318        1.8372640923        3.0956666186
  O         3.9522565579       -1.4474543530       -1.5565863081
  H         3.4813612581       -0.6414183382       -1.1587337782
  H         4.3995177021       -1.0233552577       -2.3198937840
      14
 i =       28, E =       -77.4247204857
  C         1.2027911314        1.6533880250       -0.2430126970
  C        -0.3671983604        0.2605819322       -0.0597112332
  N        -0.0845684564        1.5310315396        0.2038134004
  N         1.7317254056        0.5438681584       -0.7515614418
  N         0.6998366289       -0.3481278521       -0.6193735972
  H         0.8699751695       -1.3342224219       -0.8369090700
  H        -1.2933551335       -0.2456759690        0.1645750297
  H         1.7561086066        2.5807755765       -0.2071192826
  O        -1.1457370716        2.5704744774        2.8138994773
  H        -0.8380888210        2.3225682846        1.9076653764
  H        -1.7118681509        1.8363233859        3.0910870846
  O         3.9474501550       -1.4450639716       -1.5676168793
  H         3.4612323884       -0.6984373841       -1.1500883955
  H         4.4044855136       -1.0243984595       -2.3087509388
      14
 i =       29, E =       -77.4243676095
  C         1.2022380481        1.6136375602       -0.1422380216
  C        -0.3680908932        0.1917530297       -0.0726208333
  N        -0.0881577326        1.4559792256        0.2881222764
  N         1.7390704131        0.5343043738       -0.7330958211
  N         0.7073062613       -0.3761006073       -0.6697528433
  H         0.8902121024       -1.3468294704       -0.9172717427
  H        -1.3029643261       -0.3310722469        0.0958843138
  H         1.7608460803        2.5425180239       -0.0231675055
  O        -1.1749373073        2.5786352144        2.8162009938
  H        -0.8576333737        2.2618035882        1.9280549353
  H        -1.7527972372        1.8682474195        3.1535304668
  O         3.9456724146       -1.3379002954       -1.5752647651
  H         3.4731167549       -0.5518553656       -1.2338717153
  H         4.4565545057       -1.0297006911       -2.3759781664
      14
 i =       30, E =       -77.4257546716
  C         1.2032267623        1.6269503886       -0.1761383266
  C        -0.3638041328        0.2060147425       -0.0517998936
  N        -0.0825366411        1.4720860617        0.2633958485
  N         1.7377633755        0.5372621350       -0.7338105112
  N         0.7120993848       -0.3607114856       -0.6517241506
  H         0.8880530116       -1.3349992552       -0.8900072194
  H        -1.3051389792       -0.3105778816        0.1146123372
  H         1.7598927903        2.5533896868       -0.0833775675
  O        -1.1641824581        2.5650436399        2.8127195154
  H        -0.8470536101        2.2768065287        1.9281164353
  H        -1.7341188953        1.8494594983        3.1143572246
  O         3.9482596846       -1.3739773708       -1.5827580942
  H         3.4542189111       -0.6005748785       -1.2263006555
  H         4.4292031225       -1.0188081006       -2.3473998147
      14
 i =       31, E =       -77.4260911908
  C         1.2054002668        1.6115072456       -0.1482252504
  C        -0.3601258820        0.1853256089       -0.0517739718
  N        -0.0830337471        1.4491201894        0.2820317695
  N         1.7408188605        0.5317998581       -0.7270037477
  N         0.7157815925       -0.3667789293       -0.6646795598
  H         0.8970317671       -1.3385031784       -0.9168731019
  H        -1.3012871603       -0.3320949882        0.1024953520
  H         1.7597548051        2.5385267192       -0.0354080301
  O        -1.1625744690        2.5676837736        2.8073789535
  H        -0.8473100865        2.2605022040        1.9265843189
  H        -1.7431351906        1.8590694802        3.1267601505
  O         3.9484368587       -1.3413306151       -1.5871617332
  H         3.4567054159       -0.5567942723       -1.2527601068
  H         4.4340223606       -1.0075665516       -2.3529353747
      14
 i =       32, E =       -77.4263883028
  C         1.2069191491        1.5998433958       -0.1345660298
  C        -0.3537443803        0.1728821924       -0.0505837059
  N        -0.0809403241        1.4320296668        0.2916191475