24
 i =        1, E =     -1520.061955260000000
 Co         1.1685651217        2.8260202452        3.0264753259
 Co         2.4023178502        0.4770639260        3.0319095009
 Co         5.0472841574        0.3857714917        3.0302810312
 Co         3.6889520356        2.6383078344        3.0148793518
 Co         6.1960477900        2.6421759488        3.0298721583
 Co         0.0402965101        4.7928326076        3.0235162778
 Co         2.6843000000        4.7397766796        3.0342483468
 Co         1.2337596625        6.7816587467        3.0352407013
 Co         3.6151312929        6.9193137403        3.0306218677
 Co         4.9990479517        4.8282021718        3.0294277509
 C         2.3276562303        4.3368043044        7.6031526969
 C         3.2000904773        3.3127043738        7.5656454477
 C         3.7411881984        2.7632431404        8.7247180833
 C         3.3941540526        3.3658733856        9.9516636353
 C         2.5312885486        4.4921360994        9.9774553499
 C         1.9840008912        4.9898592421        8.7791106164
 H         4.3988955477        1.9179657354        8.6870960308
 H         3.7853152496        2.9763143511        10.8697026989
 H         2.2902299418        4.9642420792        10.9071449788
 H         1.3303412153        5.8355674518        8.771815457
 N         1.8666705097        4.5872381258        6.250624162
 N         3.438979892        2.9896680544        6.1641090526
 N         2.7974840511        3.8388429462        5.4717603035
 H         1.8614708302        5.5474536372        5.2688348461
24
 i =        1, E =     -1520.049151673495089
 Co         1.1685651217        2.8260202452        3.0264753259
 Co         2.4023178502        0.4770639260        3.0319095009
 Co         5.0472841574        0.3857714917        3.0302810312
 Co         3.6889520356        2.6383078344        3.0148793518
 Co         6.1960477900        2.6421759488        3.0298721583
 Co         0.0402965101        4.7928326076        3.0235162778
 Co         2.6843000000        4.7397766796        3.0342483468
 Co         1.2337596625        6.7816587467        3.0352407013
 Co         3.6151312929        6.9193137403        3.0306218677
 Co         4.9990479517        4.8282021718        3.0294277509
 C         2.3276562303        4.3368043044        7.3595400531
 C         3.2000904773        3.3127043738        7.322032804
 C         3.7411881984        2.7632431404        8.4811054396
 C         3.3941540526        3.3658733856        9.7080509915
 C         2.5312885486        4.4921360994        9.7338427061
 C         1.9840008912        4.9898592421        8.5354979727
 H         4.3988955477        1.9179657354        8.443483387
 H         3.7853152496        2.9763143511        10.6260900551
 H         2.2902299418        4.9642420792        10.6635323351
 H         1.3303412153        5.8355674518        8.5282028133
 N         1.8666705097        4.5872381258        6.0070115183
 N         3.438979892        2.9896680544        5.9204964089
 N         2.7974840511        3.8388429462        5.2281476598
 H         1.8614708302        5.5474536372        5.0252222024
24
 i =        1, E =     -1520.056444212923907
 Co         1.1685651217        2.8260202452        3.0264753259
 Co         2.4023178502        0.4770639260        3.0319095009
 Co         5.0472841574        0.3857714917        3.0302810312
 Co         3.6889520356        2.6383078344        3.0148793518
 Co         6.1960477900        2.6421759488        3.0298721583
 Co         0.0402965101        4.7928326076        3.0235162778
 Co         2.6843000000        4.7397766796        3.0342483468
 Co         1.2337596625        6.7816587467        3.0352407013
 Co         3.6151312929        6.9193137403        3.0306218677
 Co         4.9990479517        4.8282021718        3.0294277509
 C         2.3276562303        4.3368043044        7.1159274094
 C         3.2000904773        3.3127043738        7.0784201603
 C         3.7411881984        2.7632431404        8.2374927959
 C         3.3941540526        3.3658733856        9.4644383478
 C         2.5312885486        4.4921360994        9.4902300624
 C         1.9840008912        4.9898592421        8.291885329
 H         4.3988955477        1.9179657354        8.1998707433
 H         3.7853152496        2.9763143511        10.3824774114
 H         2.2902299418        4.9642420792        10.4199196913
 H         1.3303412153        5.8355674518        8.2845901696
 N         1.8666705097        4.5872381258        5.7633988745
 N         3.438979892        2.9896680544        5.6768837652
 N         2.7974840511        3.8388429462        4.9845350161
 H         1.8614708302        5.5474536372        4.7816095587
24
 i =        1, E =     -1520.060762628618249
 Co         1.1685651217        2.8260202452        3.0264753259
 Co         2.4023178502        0.4770639260        3.0319095009
 Co         5.0472841574        0.3857714917        3.0302810312
 Co         3.6889520356        2.6383078344        3.0148793518
 Co         6.1960477900        2.6421759488        3.0298721583
 Co         0.0402965101        4.7928326076        3.0235162778
 Co         2.6843000000        4.7397766796        3.0342483468
 Co         1.2337596625        6.7816587467        3.0352407013
 Co         3.6151312929        6.9193137403        3.0306218677
 Co         4.9990479517        4.8282021718        3.0294277509
 C         2.3276562303        4.3368043044        6.8723147657
 C         3.2000904773        3.3127043738        6.8348075166
 C         3.7411881984        2.7632431404        7.9938801522
 C         3.3941540526        3.3658733856        9.2208257041
 C         2.5312885486        4.4921360994        9.2466174187
 C         1.9840008912        4.9898592421        8.0482726852
 H         4.3988955477        1.9179657354        7.9562580996
 H         3.7853152496        2.9763143511        10.1388647677
 H         2.2902299418        4.9642420792        10.1763070476
 H         1.3303412153        5.8355674518        8.0409775258
 N         1.8666705097        4.5872381258        5.5197862308
 N         3.438979892        2.9896680544        5.4332711215
 N         2.7974840511        3.8388429462        4.7409223724
 H         1.8614708302        5.5474536372        4.5379969149
24
 i =        1, E =     -1520.043263888980619
 Co         1.1685651217        2.8260202452        3.0264753259
 Co         2.4023178502        0.4770639260        3.0319095009
 Co         5.0472841574        0.3857714917        3.0302810312
 Co         3.6889520356        2.6383078344        3.0148793518
 Co         6.1960477900        2.6421759488        3.0298721583
 Co         0.0402965101        4.7928326076        3.0235162778
 Co         2.6843000000        4.7397766796        3.0342483468
 Co         1.2337596625        6.7816587467        3.0352407013
 Co         3.6151312929        6.9193137403        3.0306218677
 Co         4.9990479517        4.8282021718        3.0294277509
 C         2.3276562303        4.3368043044        6.6287021219
 C         3.2000904773        3.3127043738        6.5911948729
 C         3.7411881984        2.7632431404        7.7502675085
 C         3.3941540526        3.3658733856        8.9772130603
 C         2.5312885486        4.4921360994        9.0030047749
 C         1.9840008912        4.9898592421        7.8046600415
 H         4.3988955477        1.9179657354        7.7126454559
 H         3.7853152496        2.9763143511        9.8952521239
 H         2.2902299418        4.9642420792        9.9326944039
 H         1.3303412153        5.8355674518        7.7973648821
 N         1.8666705097        4.5872381258        5.2761735871
 N         3.438979892        2.9896680544        5.1896584778
 N         2.7974840511        3.8388429462        4.4973097287
 H         1.8614708302        5.5474536372        4.2943842712
24
 i =        1, E =     -1519.973393723704476
 Co         1.1685651217        2.8260202452        3.0264753259
 Co         2.4023178502        0.4770639260        3.0319095009
 Co         5.0472841574        0.3857714917        3.0302810312
 Co         3.6889520356        2.6383078344        3.0148793518
 Co         6.1960477900        2.6421759488        3.0298721583
 Co         0.0402965101        4.7928326076        3.0235162778
 Co         2.6843000000        4.7397766796        3.0342483468
 Co         1.2337596625        6.7816587467        3.0352407013
 Co         3.6151312929        6.9193137403        3.0306218677
 Co         4.9990479517        4.8282021718        3.0294277509
 C         2.3276562303        4.3368043044        6.3850894782
 C         3.2000904773        3.3127043738        6.3475822292
 C         3.7411881984        2.7632431404        7.5066548648
 C         3.3941540526        3.3658733856        8.7336004166
 C         2.5312885486        4.4921360994        8.7593921312
 C         1.9840008912        4.9898592421        7.5610473978
 H         4.3988955477        1.9179657354        7.4690328122
 H         3.7853152496        2.9763143511        9.6516394802
 H         2.2902299418        4.9642420792        9.6890817601
 H         1.3303412153        5.8355674518        7.5537522384
 N         1.8666705097        4.5872381258        5.0325609434
 N         3.438979892        2.9896680544        4.9460458341
 N         2.7974840511        3.8388429462        4.253697085
 H         1.8614708302        5.5474536372        4.0507716275
      20
 i =        1, E =      -101.2320778626
  C         0.1624781600        1.4475200641        0.3697780367
  C         1.5056516482        1.3616132838        0.1776334326
  C         2.1022135011        2.5422144263       -0.2737444948
  C         1.4685241871        3.7606871965       -0.5448504464
  C         0.0727704151        3.7706654941       -0.4073497515
  C        -0.5307091627        2.6090052979        0.0848911646
  H         3.1592331816        2.5138846462       -0.4349869852
  H         2.0152815837        4.6418424710       -0.8657168997
  H        -0.5153058102        4.6565546076       -0.6230464252
  H        -1.6192930442        2.6034595196        0.1064471850
  N        -0.2178352656        0.1343888042        0.7668383766
  N         1.9043188861       -0.0198794325        0.3381721774
  N         0.9230723823       -0.7497317550        0.7379609632
  H        -1.1097186165       -0.2552022889        0.4591245046
  O        -3.2051426404        2.8164108319        0.1830370471
  H        -2.5917079074        3.5595429237        0.2999917286
  H        -2.7610630800        2.0178338542        0.4921385115
  O         4.9217089444        2.3850816475       -0.4201012630
  H         4.4193198439        3.0800759497       -0.8720678805
  H         4.2963239957        1.8675885391        0.1076202582
      20
 i =        2, E =      -101.2684635570
  C         0.1438695679        1.4113770318        0.3628740366
  C         1.5102556129        1.3452538842        0.1284316175
  C         2.1150122237        2.5373911656       -0.2828101873
  C         1.4639054460        3.7291375327       -0.5352431873
  C         0.0883824410        3.7676539763       -0.3578353137
  C        -0.5081676041        2.5992280116        0.0734847806
  H         3.1517406458        2.5263848616       -0.4946492272
  H         2.0260237401        4.6121345177       -0.8660741682
  H        -0.5201743556        4.6436902229       -0.6312951565
  H        -1.5867552921        2.6034554173        0.0427089238
  N        -0.2653762098        0.1606127573        0.7646941400
  N         1.9834426174        0.0415827446        0.4051768849
  N         0.9089429374       -0.6233244045        0.6444043485
  H        -1.1419420938       -0.3353513761        0.5014677773
  O        -3.3983854489        2.8333768911        0.1846444904
  H        -2.7492294632        3.5508835903        0.3447604003
  H        -2.9461293422        2.0523938670        0.5479721827
  O         5.1217089444        2.3881180896       -0.3994623516
  H         4.5385140451        3.0436569473       -0.8466591361
  H         4.4648005069        1.8659050742        0.1007125158
      20
 i =        3, E =      -101.2927331076
  C         0.1068565777        1.4238163746        0.3103274467
  C         1.5032905566        1.4057479365        0.1528067626
  C         2.1744701645        2.5395513447       -0.3139886178
  C         1.4761013608        3.7098221860       -0.5139950990
  C         0.0990046366        3.7456860603       -0.3370318141
  C        -0.5689940355        2.6059527378        0.0471064796
  H         3.1987496448        2.5171926172       -0.5401476931
  H         2.0348337464        4.5866007204       -0.8695324904
  H        -0.5095457628        4.6201942705       -0.6215594977
  H        -1.6191319029        2.5813708316        0.0222797540
  N        -0.2188143523        0.1708034978        0.7114628236
  N         1.9316745287        0.1021246201        0.3981610656
  N         0.9150792525       -0.6612838334        0.6511245529
  H        -1.1181593648       -0.3510543739        0.5429728567
  O        -3.5402910691        2.8513228812        0.1771827085
  H        -2.8855237513        3.5550356148        0.3813764183
  H        -3.0916514577        2.0826972848        0.5901328800
  O         5.2510207565        2.3830127746       -0.3989220742
  H         4.6609224045        3.0340315385       -0.8381864871
  H         4.5984640963        1.8532056899        0.1050591871
      20
 i =        4, E =      -101.3082420671
  C         0.0955835283        1.4354472835        0.3129977665
  C         1.5072321594        1.4143182748        0.1552708211
  C         2.2069194563        2.5430335395       -0.2965385370
  C         1.4902910385        3.7053325567       -0.5100038118
  C         0.0962307891        3.7131960881       -0.3483233914
  C        -0.6282106091        2.5931246303        0.0266296590
  H         3.2332665116        2.4841952177       -0.5950620165
  H         2.0325791771        4.5828971718       -0.8755446031
  H        -0.4747161732        4.6134519367       -0.5965237207
  H        -1.6739542443        2.5647592817       -0.0164368067
  N        -0.2062259495        0.1497911852        0.6440973216
  N         1.9522853473        0.1316565389        0.3632154501
  N         0.9524589549       -0.6452736459        0.6943064079
  H        -1.1187157904       -0.3283635220        0.5513068037
  O        -3.7068960597        2.8805830267        0.1850174754
  H        -3.0713529548        3.5855744444        0.4114906783
  H        -3.2916514577        2.1072630691        0.6298239906
  O         5.3938467860        2.3773358440       -0.4038749705
  H         4.8400215361        3.0407649674       -0.8389778375
  H         4.7760490345        1.8247303034        0.1196709632
      20
 i =        5, E =      -101.3175495164
  C         0.1073050156        1.4275957991        0.2819546288
  C         1.5306202716        1.4031083982        0.1474632659
  C         2.2209945870        2.5397402714       -0.3122827568
  C         1.4928120198        3.7068404071       -0.5075903401
  C         0.0811632116        3.7149265334       -0.3623711714
  C        -0.6443906426        2.5849613272        0.0168990612
  H         3.2575602785        2.4458599058       -0.6205450575
  H         2.0094707837        4.5918888411       -0.8771372291
  H        -0.4546216734        4.6348810575       -0.5849509297
  H        -1.7167172890        2.5558359948       -0.0682418169
  N        -0.1766240745        0.1405868626        0.6231508882
  N         1.9714520249        0.1395340029        0.4089105625
  N         0.9536269362       -0.6504124113        0.6506619194
  H        -1.0827875310       -0.3120074218        0.5780752323
  O        -3.8592536266        2.8992258560        0.1932600601
  H        -3.2603626532        3.6210186040        0.4376528900
  H        -3.4916514577        2.1219755860        0.6636918434
  O         5.5394373670        2.3694921547       -0.4055204693
  H         4.9978351546        3.0414544605       -0.8289606625
  H         4.9398623230        1.8135011709        0.1239215342
      20
 i =        6, E =      -101.3219143557
  C         0.1244285905        1.4333843271        0.2609200915
  C         1.5492928295        1.4012899167        0.1472669312
  C         2.2361803364        2.5304341465       -0.3346265696
  C         1.4919379169        3.6889101587       -0.5299636701
  C         0.0781658797        3.7280170013       -0.3453910136
  C        -0.6521531405        2.5715369164       -0.0335403630
  H         3.2801911093        2.4310827612       -0.6146488170
  H         1.9813658956        4.5949983827       -0.8724856301
  H        -0.4470240910        4.6467651724       -0.5829010411
  H        -1.7412438619        2.5553473711       -0.0954985942
  N        -0.1700765354        0.1430832317        0.5777390434
  N         2.0014568822        0.1378331172        0.3998127554
  N         0.9666334756       -0.6265320531        0.6577830858
  H        -1.0804507148       -0.3314569717        0.6158558107
  O        -3.9906335997        2.9099841583        0.1867428242
  H        -3.4230703806        3.6457727533        0.4728788649
  H        -3.6605820623        2.1445175479        0.6957091457
  O         5.6709915124        2.3647890472       -0.4046738964
  H         5.1137340607        3.0404564524       -0.8108220780
  H         5.0703293018        1.8176411816        0.1195642258
      20
 i =        7, E =      -101.3254617450
  C         0.1245330743        1.4202324260        0.2247905594
  C         1.5441604833        1.4035564260        0.1095798076
  C         2.2439062935        2.5318784873       -0.3458820337
  C         1.4958250471        3.6872071569       -0.5427027095
  C         0.0783005825        3.7155549567       -0.3770331235
  C        -0.6498752646        2.5619061389       -0.0675937997
  H         3.3000453700        2.4356270744       -0.6019585288
  H         1.9646224169        4.6059793672       -0.8760672832
  H        -0.4345857181        4.6533030047       -0.5713157779
  H        -1.7538757346        2.5500608422       -0.1147395030
  N        -0.1643232949        0.1268828009        0.5447164465
  N         2.0134100066        0.1445570171        0.4000759918
  N         0.9770326118       -0.6180486982        0.6643042517
  H        -1.0649711752       -0.3387673635        0.6439088501
  O        -4.1333315034        2.9233015839        0.1679243099
  H        -3.6151203793        3.6787978884        0.5213840521
  H        -3.8560502713        2.1755723800        0.7370962667
  O         5.8400122733        2.3689747288       -0.4017154268
  H         5.2561862700        3.0438883286       -0.7888751902
  H         5.2360517627        1.8200219332        0.1134027068
      20
 i =        8, E =      -101.3283566206
  C         0.1219276117        1.4027606877        0.1784611304
  C         1.5349841326        1.3994223316        0.0780539779
  C         2.2301129161        2.5380756074       -0.3539797506
  C         1.4953175033        3.6975230071       -0.5613830081
  C         0.0825817792        3.7042651419       -0.4042835464
  C        -0.6385598805        2.5545058086       -0.0940376181
  H         3.2961898521        2.4625984273       -0.5665915279
  H         1.9722486697        4.6184220545       -0.8794033923
  H        -0.4362432526        4.6470659705       -0.5717871469
  H        -1.7389952906        2.5477405822       -0.0985712177
  N        -0.1622740933        0.1182880100        0.5434378268
  N         2.0095176040        0.1366925955        0.3962959581
  N         0.9780212132       -0.6235996594        0.6699935254
  H        -1.0528143967       -0.3412247147        0.6668232335
  O        -4.1876275532        2.9359324104        0.1717884217
  H        -3.7159559882        3.7073452617        0.5393126030
  H        -3.9525441555        2.1931496793        0.7504986615
  O         5.9233150559        2.3844948951       -0.4019387650
  H         5.3395566580        3.0616223706       -0.7836843126
  H         5.3301833740        1.8125503217        0.1133321277
      20
 i =        9, E =      -101.3295366625
  C         0.1221922852        1.3842395130        0.1098690829
  C         1.5286582368        1.3923501699        0.0274004564
  C         2.2216648276        2.5445913564       -0.3708430687
  C         1.4925900363        3.7042214789       -0.5867759397
  C         0.0839632990        3.6902872066       -0.4426300756
  C        -0.6323904773        2.5431902368       -0.1382412556
  H         3.3026803649        2.4963256464       -0.5212826939
  H         1.9787469987        4.6301697463       -0.8821727970
  H        -0.4401339881        4.6397442042       -0.5737242295
  H        -1.7302397505        2.5459731205       -0.0881974698
  N        -0.1531584207        0.1064456767        0.5189802072
  N         2.0104005550        0.1319756388        0.3926147771
  N         0.9860702848       -0.6288195418        0.6763567147
  H        -1.0399212097       -0.3502791749        0.7161210600
  O        -4.3188470088        2.9588369940        0.1626297105
  H        -3.9158270177        3.7485188292        0.5794099080
  H        -4.1525441555        2.2319560248        0.7893587461
  O         6.0916841019        2.3999252560       -0.4057138411
  H         5.5030245210        3.0821531958       -0.7693904669
  H         5.5127509208        1.8033897014        0.1108176023
      20
 i =       10, E =      -101.3303493515
  C         0.1247114194        1.3826794656        0.1073370464
  C         1.5298215621        1.3896216526        0.0170028179
  C         2.2261428584        2.5431903196       -0.3755717176
  C         1.4851415659        3.6966380341       -0.5885132353
  C         0.0773433113        3.6936827418       -0.4524765459
  C        -0.6299599129        2.5420494298       -0.1384003431
  H         3.3076115556        2.5109936496       -0.5031899109
  H         1.9832039794        4.6204604949       -0.8774061561
  H        -0.4562561808        4.6338836415       -0.5868587365
  H        -1.7203112037        2.5478230692       -0.0809229693
  N        -0.1590474443        0.0999502842        0.5102099959
  N         2.0068883168        0.1336723344        0.3807594418
  N         0.9908324722       -0.6296800659        0.6802171039
  H        -1.0433383032       -0.3433244893        0.7100101120
  O        -4.3288666355        2.9599685835        0.1672740616
  H        -3.9416307490        3.7489696935        0.5798462444
  H        -4.1737784071        2.2399094787        0.7974983274
  O         6.1213088449        2.3895791213       -0.4127583318
  H         5.5297471818        3.0778749006       -0.7605178355
  H         5.5366765158        1.8102188298        0.1058147127
      20
 i =       11, E =      -101.3308233840
  C         0.1272852633        1.3881569990        0.1097385627
  C         1.5349397797        1.3819676509        0.0165664684
  C         2.2275213131        2.5409773429       -0.3715377505
  C         1.4828971273        3.6917955879       -0.5901868713
  C         0.0745744307        3.6949417917       -0.4567075493
  C        -0.6342765793        2.5436254916       -0.1299888336
  H         3.3051186417        2.5215869229       -0.4907393856
  H         1.9896462970        4.6136765627       -0.8728208794
  H        -0.4705996238        4.6224124038       -0.6057609899
  H        -1.7159249439        2.5478528401       -0.0745531511
  N        -0.1604420562        0.1009911195        0.4935344886
  N         2.0084332357        0.1326964005        0.3727978252
  N         0.9935447846       -0.6305109719        0.6673548073
  H        -1.0556924698       -0.3359889730        0.7097183130
  O        -4.3232316575        2.9532431956        0.1554179590
  H        -3.9480848415        3.7410368764        0.5842511667
  H        -4.1757804067        2.2445239368        0.8106866829
  O         6.1153615612        2.3823755752       -0.4119459700
  H         5.5385279961        3.0775010425       -0.7584078143
  H         5.5332947800        1.8079140609        0.1077535624
      20
 i =       12, E =      -101.3310475602
  C         0.1272744258        1.3902493544        0.1211009165
  C         1.5378259585        1.3809522850        0.0248438924
  C         2.2287069146        2.5411613433       -0.3646448769
  C         1.4835452817        3.6913239244       -0.5892292568
  C         0.0735675155        3.6943250330       -0.4525589660
  C        -0.6386175386        2.5414342666       -0.1239993413
  H         3.3044391969        2.5228290739       -0.4884303640
  H         1.9904280168        4.6122769574       -0.8714770866
  H        -0.4734184426        4.6174666350       -0.6193507691
  H        -1.7201401226        2.5473255283       -0.0720366743
  N        -0.1625070731        0.1037004611        0.4973265247
  N         2.0059935218        0.1306061207        0.3649767326
  N         0.9886488194       -0.6318258617        0.6542722188
  H        -1.0566113173       -0.3297024089        0.6996865628
  O        -4.3098857719        2.9458602459        0.1609869493
  H        -3.9325024784        3.7339244053        0.5829185089
  H        -4.1542545592        2.2402721231        0.8078052152
  O         6.0890889769        2.3806587048       -0.4080654449
  H         5.5183565225        3.0777559764       -0.7584010891
  H         5.5069104630        1.8056115391        0.1093501343
      20
 i =       13, E =      -101.3313569550
  C         0.1264914398        1.3874097292        0.1215872240
  C         1.5383037007        1.3808380821        0.0241361739
  C         2.2297107129        2.5431509762       -0.3597615343
  C         1.4836405186        3.6925219068       -0.5901502600
  C         0.0718308304        3.6913609158       -0.4593902076
  C        -0.6375143257        2.5376332748       -0.1252720816
  H         3.3090866563        2.5293748151       -0.4755678676
  H         1.9884110024        4.6137453552       -0.8712836110
  H        -0.4760212679        4.6137549778       -0.6374667320
  H        -1.7204054495        2.5425019015       -0.0670399450
  N        -0.1641153042        0.1036666467        0.4971251210
  N         2.0030940750        0.1260513111        0.3511132644
  N         0.9841762546       -0.6351254286        0.6420008517
  H        -1.0556513187       -0.3269765890        0.6978143054
  O        -4.3065214755        2.9412410533        0.1612565762
  H        -3.9509385895        3.7406742214        0.5906338924
  H        -4.1680314395        2.2377077052        0.8169694579
  O         6.1007192113        2.3845103194       -0.4026605970
  H         5.5233196350        3.0799039634       -0.7522681636
  H         5.5130618768        1.8050656632        0.1060542537
      20
 i =       14, E =      -101.3307669195
  C         0.1254270610        1.3914515447        0.1476012701
  C         1.5379800842        1.3787981634        0.0222632014
  C         2.2327907237        2.5490684228       -0.3344320250
  C         1.4824476356        3.6952412169       -0.5793958222
  C         0.0644588031        3.6845323709       -0.4826149060
  C        -0.6326413292        2.5361923504       -0.1083980155
  H         3.3192473660        2.5450919930       -0.4366052706
  H         1.9802898402        4.6134154309       -0.8701770713
  H        -0.4879548228        4.6018042543       -0.7042617977
  H        -1.7198611373        2.5279706368       -0.0479326757
  N        -0.1690570226        0.1099303564        0.4955867432
  N         1.9938286764        0.1080815077        0.3062069864
  N         0.9699291713       -0.6513420675        0.5982314036
  H        -1.0686105604       -0.3226874182        0.6895506546
  O        -4.2280361660        2.9198817161        0.1614458569
  H        -3.9268659654        3.7470696196        0.5997655453
  H        -4.1321291927        2.2186069278        0.8388552874
  O         6.0630822829        2.3885616703       -0.3963041187
  H         5.4713993347        3.0860018700       -0.7387609254
  H         5.4572493667        1.8051962053        0.0940067811
      20
 i =       15, E =      -101.3315669887
  C         0.1259029802        1.3918761460        0.1347238117
  C         1.5372843639        1.3786023724        0.0179785009
  C         2.2307351115        2.5479619927       -0.3416448824
  C         1.4810407154        3.6931507569       -0.5856022364
  C         0.0663946088        3.6833035470       -0.4827371381
  C        -0.6357654394        2.5379192313       -0.1165421241
  H         3.3172734618        2.5450055826       -0.4331656972
  H         1.9804978538        4.6150902121       -0.8697253723
  H        -0.4860377989        4.5987467081       -0.6980285569
  H        -1.7219838953        2.5331375672       -0.0519961260
  N        -0.1659638831        0.1064698134        0.4890568625
  N         1.9987814413        0.1100211538        0.3146181007
  N         0.9754948119       -0.6506097788        0.5994788159
  H        -1.0650507936       -0.3239231586        0.6943252034
  O        -4.2531787916        2.9288926485        0.1694097006